 *******************************************************************************
 ** Site#: 30659        For non-commercial use only    Version 20.225L 64BITS **
 *******************************************************************************
 ** Cite this program as: MOPAC2016, Version: 20.225L, James J. P. Stewart,   **
 ** Stewart Computational Chemistry, web: HTTP://OpenMOPAC.net. Days left: 192**
 *******************************************************************************
 **                                                                           **
 **                                MOPAC2016                                  **
 **                                                                           **
 *******************************************************************************

                              PM7 CALCULATION RESULTS

 *******************************************************************************
 *  CALCULATION DONE:                                Tue Feb  2 18:48:27 2021  *
 *  PM7        - The PM7 Hamiltonian to be used
 *  SINGLET    - SPIN STATE DEFINED AS A SINGLET
 *
 *
 *
 *                 CHARGE ON SYSTEM = 0
 *
 *
 *
 *  T=         - A TIME OF 172800.0 SECONDS REQUESTED
 *  DUMP=N     - RESTART FILE WRITTEN EVERY 7200.0 SECONDS REQUESTED
 *  GNORM      - EXIT WHEN GRADIENT NORM DROPS BELOW 0.000
 *  AUX        - OUTPUT AUXILIARY INFORMATION
 *  LARGE      - EXPANDED OUTPUT TO BE PRINTED
 *******************************************************************************
 AUX LARGE CHARGE=0 SINGLET  PM7 GNORM=0.0
 K1

   ATOM   CHEMICAL          X               Y               Z
  NUMBER   SYMBOL      (ANGSTROMS)     (ANGSTROMS)     (ANGSTROMS)
 
     1       C         -3.01819000  *   1.82764000  *   2.61014000  *
     2       C         -2.44523000  *   0.93394000  *   1.51057000  *
     3       H         -2.44122000  *   2.77037000  *   2.70106000  *
     4       H         -2.95930000  *   1.29681000  *   3.58362000  *
     5       H         -4.08256000  *   2.06428000  *   2.39863000  *
     6       C         -2.54202000  *   1.55896000  *   0.10631000  *
     7       H         -3.02278000  *  -0.01578000  *   1.50429000  *
     8       H         -1.38794000  *   0.68797000  *   1.74814000  *
     9       C         -1.74392000  *   2.86188000  *  -0.06908000  *
    10       H         -3.61024000  *   1.76031000  *  -0.12702000  *
    11       H         -2.17156000  *   0.81440000  *  -0.63202000  *
    12       C         -0.27513000  *   2.65870000  *   0.17363000  *
    13       H         -2.14209000  *   3.64516000  *   0.61010000  *
    14       H         -1.87909000  *   3.22538000  *  -1.11008000  *
    15       O          0.41237000  *   1.77431000  *  -0.59305000  *
    16       O          0.28676000  *   3.29325000  *   1.05597000  *
    17       C          1.75746000  *   1.51238000  *  -0.44431000  *
    18       H          2.34849000  *   2.43880000  *  -0.60826000  *
    19       H          2.06557000  *   0.75441000  *  -1.19335000  *
    20       H          1.95910000  *   1.11314000  *   0.57278000  *
 


          CARTESIAN COORDINATES 

    NO.       ATOM           X           Y           Z

     1         C         -3.0182      1.8276      2.6101
     2         C         -2.4452      0.9339      1.5106
     3         H         -2.4412      2.7704      2.7011
     4         H         -2.9593      1.2968      3.5836
     5         H         -4.0826      2.0643      2.3986
     6         C         -2.5420      1.5590      0.1063
     7         H         -3.0228     -0.0158      1.5043
     8         H         -1.3879      0.6880      1.7481
     9         C         -1.7439      2.8619     -0.0691
    10         H         -3.6102      1.7603     -0.1270
    11         H         -2.1716      0.8144     -0.6320
    12         C         -0.2751      2.6587      0.1736
    13         H         -2.1421      3.6452      0.6101
    14         H         -1.8791      3.2254     -1.1101
    15         O          0.4124      1.7743     -0.5930
    16         O          0.2868      3.2933      1.0560
    17         C          1.7575      1.5124     -0.4443
    18         H          2.3485      2.4388     -0.6083
    19         H          2.0656      0.7544     -1.1933
    20         H          1.9591      1.1131      0.5728

 General Reference for PM7:
 "Optimization of Parameters for Semiempirical Methods VI: More Modifications to the 
 NDDO Approximations and Re-optimization of Parameters", J. J. P. Stewart, J. Mol. Mod., 1:32, 19 (2013)
 https://link.springer.com/article/10.1007/s00894-012-1667-x

           Empirical Formula: C6 H12 O2  =    20 atoms



      MOLECULAR POINT GROUP   :   C1  


 SINGLET STATE CALCULATION


      RHF CALCULATION, NO. OF DOUBLY OCCUPIED LEVELS = 24


          Geometry optimization using EF

  GNORM HAS BEEN SET TOO LOW, RESET TO 0.01

  SPECIFY LET AS KEYWORD TO ALLOW GNORM LESS THAN 0.01

          DIAGONAL MATRIX USED AS START HESSIAN

 CYCLE:     1 TIME:   0.023 TIME LEFT:  2.00D  GRAD.:   109.579 HEAT: -104.1650
 CYCLE:     2 TIME:   0.031 TIME LEFT:  2.00D  GRAD.:    74.281 HEAT: -106.5831
 CYCLE:     3 TIME:   0.062 TIME LEFT:  2.00D  GRAD.:    79.559 HEAT: -106.7351
 CYCLE:     4 TIME:   0.000 TIME LEFT:  2.00D  GRAD.:    49.160 HEAT: -107.8559
 CYCLE:     5 TIME:   0.008 TIME LEFT:  2.00D  GRAD.:    64.822 HEAT: -108.0776
 CYCLE:     6 TIME:   0.008 TIME LEFT:  2.00D  GRAD.:    45.465 HEAT: -108.5923
 CYCLE:     7 TIME:   0.008 TIME LEFT:  2.00D  GRAD.:    23.925 HEAT: -109.2830
 CYCLE:     8 TIME:   0.008 TIME LEFT:  2.00D  GRAD.:    19.261 HEAT: -109.5051
 CYCLE:     9 TIME:   0.000 TIME LEFT:  2.00D  GRAD.:    29.486 HEAT: -109.6648
 CYCLE:    10 TIME:   0.008 TIME LEFT:  2.00D  GRAD.:    22.682 HEAT: -109.8428
 CYCLE:    11 TIME:   0.008 TIME LEFT:  2.00D  GRAD.:    24.187 HEAT: -109.8903
 CYCLE:    12 TIME:   0.008 TIME LEFT:  2.00D  GRAD.:    24.682 HEAT: -109.9215
 CYCLE:    13 TIME:   0.000 TIME LEFT:  2.00D  GRAD.:    23.414 HEAT: -109.9566
 CYCLE:    14 TIME:   0.008 TIME LEFT:  2.00D  GRAD.:    10.921 HEAT: -110.1201
 CYCLE:    15 TIME:   0.008 TIME LEFT:  2.00D  GRAD.:     8.961 HEAT: -110.1556
 CYCLE:    16 TIME:   0.008 TIME LEFT:  2.00D  GRAD.:     8.342 HEAT: -110.1796
 CYCLE:    17 TIME:   0.008 TIME LEFT:  2.00D  GRAD.:     9.953 HEAT: -110.2085
 CYCLE:    18 TIME:   0.000 TIME LEFT:  2.00D  GRAD.:     5.046 HEAT: -110.2545
 CYCLE:    19 TIME:   0.008 TIME LEFT:  2.00D  GRAD.:     5.545 HEAT: -110.2813
 CYCLE:    20 TIME:   0.008 TIME LEFT:  2.00D  GRAD.:     4.689 HEAT: -110.3133
 CYCLE:    21 TIME:   0.008 TIME LEFT:  2.00D  GRAD.:     3.963 HEAT: -110.3338
 CYCLE:    22 TIME:   0.000 TIME LEFT:  2.00D  GRAD.:     3.467 HEAT: -110.3491
 CYCLE:    23 TIME:   0.008 TIME LEFT:  2.00D  GRAD.:     3.822 HEAT: -110.3709
 CYCLE:    24 TIME:   0.008 TIME LEFT:  2.00D  GRAD.:     4.462 HEAT: -110.4027
 CYCLE:    25 TIME:   0.000 TIME LEFT:  2.00D  GRAD.:     3.538 HEAT: -110.4192
 CYCLE:    26 TIME:   0.008 TIME LEFT:  2.00D  GRAD.:     2.797 HEAT: -110.4353
 CYCLE:    27 TIME:   0.008 TIME LEFT:  2.00D  GRAD.:     2.789 HEAT: -110.4539
 CYCLE:    28 TIME:   0.008 TIME LEFT:  2.00D  GRAD.:     2.163 HEAT: -110.4624
 CYCLE:    29 TIME:   0.000 TIME LEFT:  2.00D  GRAD.:     1.436 HEAT: -110.4670
 CYCLE:    30 TIME:   0.008 TIME LEFT:  2.00D  GRAD.:     1.501 HEAT: -110.4709
 CYCLE:    31 TIME:   0.008 TIME LEFT:  2.00D  GRAD.:     1.602 HEAT: -110.4748
 CYCLE:    32 TIME:   0.000 TIME LEFT:  2.00D  GRAD.:     1.519 HEAT: -110.4783
 CYCLE:    33 TIME:   0.008 TIME LEFT:  2.00D  GRAD.:     1.601 HEAT: -110.4833
 CYCLE:    34 TIME:   0.008 TIME LEFT:  2.00D  GRAD.:     1.974 HEAT: -110.4899
 CYCLE:    35 TIME:   0.008 TIME LEFT:  2.00D  GRAD.:     2.080 HEAT: -110.4967
 CYCLE:    36 TIME:   0.000 TIME LEFT:  2.00D  GRAD.:     1.604 HEAT: -110.5035
 CYCLE:    37 TIME:   0.008 TIME LEFT:  2.00D  GRAD.:     1.308 HEAT: -110.5072
 CYCLE:    38 TIME:   0.008 TIME LEFT:  2.00D  GRAD.:     1.182 HEAT: -110.5117
 CYCLE:    39 TIME:   0.000 TIME LEFT:  2.00D  GRAD.:     0.906 HEAT: -110.5136
 CYCLE:    40 TIME:   0.008 TIME LEFT:  2.00D  GRAD.:     0.703 HEAT: -110.5154
 CYCLE:    41 TIME:   0.008 TIME LEFT:  2.00D  GRAD.:     0.616 HEAT: -110.5162
 CYCLE:    42 TIME:   0.008 TIME LEFT:  2.00D  GRAD.:     0.565 HEAT: -110.5172
 CYCLE:    43 TIME:   0.000 TIME LEFT:  2.00D  GRAD.:     0.497 HEAT: -110.5178
 CYCLE:    44 TIME:   0.008 TIME LEFT:  2.00D  GRAD.:     0.466 HEAT: -110.5186
 CYCLE:    45 TIME:   0.008 TIME LEFT:  2.00D  GRAD.:     0.483 HEAT: -110.5192
 CYCLE:    46 TIME:   0.000 TIME LEFT:  2.00D  GRAD.:     0.456 HEAT: -110.5197
 CYCLE:    47 TIME:   0.008 TIME LEFT:  2.00D  GRAD.:     0.442 HEAT: -110.5202
 CYCLE:    48 TIME:   0.008 TIME LEFT:  2.00D  GRAD.:     0.524 HEAT: -110.5209
 CYCLE:    49 TIME:   0.008 TIME LEFT:  2.00D  GRAD.:     0.609 HEAT: -110.5216
 CYCLE:    50 TIME:   0.000 TIME LEFT:  2.00D  GRAD.:     0.856 HEAT: -110.5228
 CYCLE:    51 TIME:   0.008 TIME LEFT:  2.00D  GRAD.:     0.736 HEAT: -110.5237
 CYCLE:    52 TIME:   0.008 TIME LEFT:  2.00D  GRAD.:     1.693 HEAT: -110.5255
 CYCLE:    53 TIME:   0.000 TIME LEFT:  2.00D  GRAD.:     1.008 HEAT: -110.5278
 CYCLE:    54 TIME:   0.008 TIME LEFT:  2.00D  GRAD.:     0.433 HEAT: -110.5299
 CYCLE:    55 TIME:   0.008 TIME LEFT:  2.00D  GRAD.:     0.537 HEAT: -110.5319
 CYCLE:    56 TIME:   0.008 TIME LEFT:  2.00D  GRAD.:     0.754 HEAT: -110.5342
 CYCLE:    57 TIME:   0.008 TIME LEFT:  2.00D  GRAD.:     0.523 HEAT: -110.5348
 CYCLE:    58 TIME:   0.008 TIME LEFT:  2.00D  GRAD.:     0.610 HEAT: -110.5350
 CYCLE:    59 TIME:   0.023 TIME LEFT:  2.00D  GRAD.:     0.447 HEAT: -110.5357
 CYCLE:    60 TIME:   0.008 TIME LEFT:  2.00D  GRAD.:     1.175 HEAT: -110.5307
 CYCLE:    61 TIME:   0.023 TIME LEFT:  2.00D  GRAD.:     0.346 HEAT: -110.5363
 CYCLE:    62 TIME:   0.008 TIME LEFT:  2.00D  GRAD.:     0.283 HEAT: -110.5365
 CYCLE:    63 TIME:   0.008 TIME LEFT:  2.00D  GRAD.:     0.343 HEAT: -110.5366
 CYCLE:    64 TIME:   0.008 TIME LEFT:  2.00D  GRAD.:     0.347 HEAT: -110.5369
 CYCLE:    65 TIME:   0.008 TIME LEFT:  2.00D  GRAD.:     0.694 HEAT: -110.5378
 CYCLE:    66 TIME:   0.008 TIME LEFT:  2.00D  GRAD.:     0.588 HEAT: -110.5384
 CYCLE:    67 TIME:   0.000 TIME LEFT:  2.00D  GRAD.:     1.620 HEAT: -110.5359
 CYCLE:    68 TIME:   0.008 TIME LEFT:  2.00D  GRAD.:     0.587 HEAT: -110.5419
 CYCLE:    69 TIME:   0.008 TIME LEFT:  2.00D  GRAD.:     0.521 HEAT: -110.5436
 CYCLE:    70 TIME:   0.008 TIME LEFT:  2.00D  GRAD.:     1.215 HEAT: -110.5462
 CYCLE:    71 TIME:   0.000 TIME LEFT:  2.00D  GRAD.:     0.566 HEAT: -110.5489
 CYCLE:    72 TIME:   0.008 TIME LEFT:  2.00D  GRAD.:     0.408 HEAT: -110.5493
 CYCLE:    73 TIME:   0.008 TIME LEFT:  2.00D  GRAD.:     0.399 HEAT: -110.5499
 CYCLE:    74 TIME:   0.008 TIME LEFT:  2.00D  GRAD.:     0.387 HEAT: -110.5502
 CYCLE:    75 TIME:   0.000 TIME LEFT:  2.00D  GRAD.:     0.718 HEAT: -110.5500
 CYCLE:    76 TIME:   0.008 TIME LEFT:  2.00D  GRAD.:     0.460 HEAT: -110.5511
 CYCLE:    77 TIME:   0.008 TIME LEFT:  2.00D  GRAD.:     0.340 HEAT: -110.5517
 CYCLE:    78 TIME:   0.000 TIME LEFT:  2.00D  GRAD.:     0.381 HEAT: -110.5523
 CYCLE:    79 TIME:   0.008 TIME LEFT:  2.00D  GRAD.:     0.473 HEAT: -110.5532
 CYCLE:    80 TIME:   0.008 TIME LEFT:  2.00D  GRAD.:     1.514 HEAT: -110.5562
 CYCLE:    81 TIME:   0.008 TIME LEFT:  2.00D  GRAD.:     0.901 HEAT: -110.5587
 CYCLE:    82 TIME:   0.000 TIME LEFT:  2.00D  GRAD.:     0.641 HEAT: -110.5611
 CYCLE:    83 TIME:   0.008 TIME LEFT:  2.00D  GRAD.:     1.078 HEAT: -110.5667
 CYCLE:    84 TIME:   0.008 TIME LEFT:  2.00D  GRAD.:     0.982 HEAT: -110.5690
 CYCLE:    85 TIME:   0.008 TIME LEFT:  2.00D  GRAD.:     2.239 HEAT: -110.5704
 CYCLE:    86 TIME:   0.000 TIME LEFT:  2.00D  GRAD.:     0.928 HEAT: -110.5742
 CYCLE:    87 TIME:   0.008 TIME LEFT:  2.00D  GRAD.:     0.779 HEAT: -110.5763
 CYCLE:    88 TIME:   0.008 TIME LEFT:  2.00D  GRAD.:     1.687 HEAT: -110.5819
 CYCLE:    89 TIME:   0.000 TIME LEFT:  2.00D  GRAD.:     1.501 HEAT: -110.5881
 CYCLE:    90 TIME:   0.008 TIME LEFT:  2.00D  GRAD.:     1.720 HEAT: -110.6050
 CYCLE:    91 TIME:   0.016 TIME LEFT:  2.00D  GRAD.:     2.144 HEAT: -110.6058
 CYCLE:    92 TIME:   0.000 TIME LEFT:  2.00D  GRAD.:     3.044 HEAT: -110.6042
 CYCLE:    93 TIME:   0.008 TIME LEFT:  2.00D  GRAD.:     1.193 HEAT: -110.6098
 CYCLE:    94 TIME:   0.008 TIME LEFT:  2.00D  GRAD.:     2.271 HEAT: -110.6107
 CYCLE:    95 TIME:   0.000 TIME LEFT:  2.00D  GRAD.:     0.869 HEAT: -110.6125
 CYCLE:    96 TIME:   0.008 TIME LEFT:  2.00D  GRAD.:     0.840 HEAT: -110.6132
 CYCLE:    97 TIME:   0.008 TIME LEFT:  2.00D  GRAD.:     0.815 HEAT: -110.6142
 CYCLE:    98 TIME:   0.008 TIME LEFT:  2.00D  GRAD.:     2.125 HEAT: -110.6149
 CYCLE:    99 TIME:   0.008 TIME LEFT:  2.00D  GRAD.:     0.712 HEAT: -110.6166
 CYCLE:   100 TIME:   0.000 TIME LEFT:  2.00D  GRAD.:     0.881 HEAT: -110.6172
 CYCLE:   101 TIME:   0.008 TIME LEFT:  2.00D  GRAD.:     0.716 HEAT: -110.6183
 CYCLE:   102 TIME:   0.008 TIME LEFT:  2.00D  GRAD.:     1.263 HEAT: -110.6212
 CYCLE:   103 TIME:   0.008 TIME LEFT:  2.00D  GRAD.:     0.591 HEAT: -110.6221
 CYCLE:   104 TIME:   0.000 TIME LEFT:  2.00D  GRAD.:     2.057 HEAT: -110.6213
 CYCLE:   105 TIME:   0.008 TIME LEFT:  2.00D  GRAD.:     1.224 HEAT: -110.6229
 CYCLE:   106 TIME:   0.008 TIME LEFT:  2.00D  GRAD.:     0.413 HEAT: -110.6231
 CYCLE:   107 TIME:   0.008 TIME LEFT:  2.00D  GRAD.:     0.298 HEAT: -110.6236
 CYCLE:   108 TIME:   0.000 TIME LEFT:  2.00D  GRAD.:     1.330 HEAT: -110.6239
 CYCLE:   109 TIME:   0.008 TIME LEFT:  2.00D  GRAD.:     0.658 HEAT: -110.6246
 CYCLE:   110 TIME:   0.008 TIME LEFT:  2.00D  GRAD.:     0.437 HEAT: -110.6250
 CYCLE:   111 TIME:   0.008 TIME LEFT:  2.00D  GRAD.:     2.573 HEAT: -110.6250
 CYCLE:   112 TIME:   0.000 TIME LEFT:  2.00D  GRAD.:     0.689 HEAT: -110.6264
 CYCLE:   113 TIME:   0.008 TIME LEFT:  2.00D  GRAD.:     0.634 HEAT: -110.6268
 CYCLE:   114 TIME:   0.023 TIME LEFT:  2.00D  GRAD.:     2.458 HEAT: -110.6245
 CYCLE:   115 TIME:   0.008 TIME LEFT:  2.00D  GRAD.:     1.156 HEAT: -110.6275
 CYCLE:   116 TIME:   0.008 TIME LEFT:  2.00D  GRAD.:     2.559 HEAT: -110.6252
 CYCLE:   117 TIME:   0.000 TIME LEFT:  2.00D  GRAD.:     0.734 HEAT: -110.6291
 CYCLE:   118 TIME:   0.008 TIME LEFT:  2.00D  GRAD.:     1.722 HEAT: -110.6284
 CYCLE:   119 TIME:   0.008 TIME LEFT:  2.00D  GRAD.:     0.709 HEAT: -110.6311
 CYCLE:   120 TIME:   0.000 TIME LEFT:  2.00D  GRAD.:     0.792 HEAT: -110.6329
 CYCLE:   121 TIME:   0.008 TIME LEFT:  2.00D  GRAD.:     0.656 HEAT: -110.6352
 CYCLE:   122 TIME:   0.008 TIME LEFT:  2.00D  GRAD.:     1.089 HEAT: -110.6384
 CYCLE:   123 TIME:   0.008 TIME LEFT:  2.00D  GRAD.:     0.882 HEAT: -110.6394
 CYCLE:   124 TIME:   0.000 TIME LEFT:  2.00D  GRAD.:     2.888 HEAT: -110.6519
 CYCLE:   125 TIME:   0.008 TIME LEFT:  2.00D  GRAD.:     3.405 HEAT: -110.6547
 CYCLE:   126 TIME:   0.008 TIME LEFT:  2.00D  GRAD.:     5.437 HEAT: -110.6535
 CYCLE:   127 TIME:   0.000 TIME LEFT:  2.00D  GRAD.:     3.446 HEAT: -110.6581
 CYCLE:   128 TIME:   0.016 TIME LEFT:  2.00D  GRAD.:     2.590 HEAT: -110.6538
 CYCLE:   129 TIME:   0.008 TIME LEFT:  2.00D  GRAD.:     2.901 HEAT: -110.6632
 CYCLE:   130 TIME:   0.000 TIME LEFT:  2.00D  GRAD.:     3.792 HEAT: -110.6622
 CYCLE:   131 TIME:   0.008 TIME LEFT:  2.00D  GRAD.:     3.220 HEAT: -110.6636
 CYCLE:   132 TIME:   0.008 TIME LEFT:  2.00D  GRAD.:     1.816 HEAT: -110.6630
 CYCLE:   133 TIME:   0.000 TIME LEFT:  2.00D  GRAD.:     1.925 HEAT: -110.6642
 CYCLE:   134 TIME:   0.016 TIME LEFT:  2.00D  GRAD.:     5.319 HEAT: -110.6601
 CYCLE:   135 TIME:   0.008 TIME LEFT:  2.00D  GRAD.:     2.535 HEAT: -110.6675
 CYCLE:   136 TIME:   0.008 TIME LEFT:  2.00D  GRAD.:     3.888 HEAT: -110.6623
 CYCLE:   137 TIME:   0.008 TIME LEFT:  2.00D  GRAD.:     1.610 HEAT: -110.6711
 CYCLE:   138 TIME:   0.008 TIME LEFT:  2.00D  GRAD.:     1.154 HEAT: -110.6715
 CYCLE:   139 TIME:   0.000 TIME LEFT:  2.00D  GRAD.:     0.789 HEAT: -110.6719
 CYCLE:   140 TIME:   0.008 TIME LEFT:  2.00D  GRAD.:     0.459 HEAT: -110.6725
 CYCLE:   141 TIME:   0.008 TIME LEFT:  2.00D  GRAD.:     0.575 HEAT: -110.6730
 CYCLE:   142 TIME:   0.008 TIME LEFT:  2.00D  GRAD.:     2.857 HEAT: -110.6728
 CYCLE:   143 TIME:   0.008 TIME LEFT:  2.00D  GRAD.:     1.076 HEAT: -110.6746
 CYCLE:   144 TIME:   0.000 TIME LEFT:  2.00D  GRAD.:     0.937 HEAT: -110.6742
 CYCLE:   145 TIME:   0.008 TIME LEFT:  2.00D  GRAD.:     0.802 HEAT: -110.6751
 CYCLE:   146 TIME:   0.008 TIME LEFT:  2.00D  GRAD.:     5.678 HEAT: -110.6751
 CYCLE:   147 TIME:   0.000 TIME LEFT:  2.00D  GRAD.:     1.150 HEAT: -110.6803
 CYCLE:   148 TIME:   0.008 TIME LEFT:  2.00D  GRAD.:     0.988 HEAT: -110.6816
 CYCLE:   149 TIME:   0.008 TIME LEFT:  2.00D  GRAD.:     2.477 HEAT: -110.6818
 CYCLE:   150 TIME:   0.008 TIME LEFT:  2.00D  GRAD.:     1.333 HEAT: -110.6842
 CYCLE:   151 TIME:   0.000 TIME LEFT:  2.00D  GRAD.:     0.784 HEAT: -110.6846
 CYCLE:   152 TIME:   0.008 TIME LEFT:  2.00D  GRAD.:     0.840 HEAT: -110.6847
 CYCLE:   153 TIME:   0.008 TIME LEFT:  2.00D  GRAD.:     0.962 HEAT: -110.6851
 CYCLE:   154 TIME:   0.000 TIME LEFT:  2.00D  GRAD.:     1.318 HEAT: -110.6851
 CYCLE:   155 TIME:   0.008 TIME LEFT:  2.00D  GRAD.:     0.889 HEAT: -110.6858
 CYCLE:   156 TIME:   0.008 TIME LEFT:  2.00D  GRAD.:     1.742 HEAT: -110.6793
 CYCLE:   157 TIME:   0.008 TIME LEFT:  2.00D  GRAD.:     0.745 HEAT: -110.6866
 CYCLE:   158 TIME:   0.000 TIME LEFT:  2.00D  GRAD.:     0.857 HEAT: -110.6893
 CYCLE:   159 TIME:   0.008 TIME LEFT:  2.00D  GRAD.:     0.672 HEAT: -110.6900
 CYCLE:   160 TIME:   0.008 TIME LEFT:  2.00D  GRAD.:     1.649 HEAT: -110.6895
 CYCLE:   161 TIME:   0.000 TIME LEFT:  2.00D  GRAD.:     1.209 HEAT: -110.6907
 CYCLE:   162 TIME:   0.008 TIME LEFT:  2.00D  GRAD.:     0.741 HEAT: -110.6909
 CYCLE:   163 TIME:   0.008 TIME LEFT:  2.00D  GRAD.:     0.838 HEAT: -110.6915
 CYCLE:   164 TIME:   0.008 TIME LEFT:  2.00D  GRAD.:     0.825 HEAT: -110.6920
 CYCLE:   165 TIME:   0.000 TIME LEFT:  2.00D  GRAD.:     1.221 HEAT: -110.6945
 CYCLE:   166 TIME:   0.008 TIME LEFT:  2.00D  GRAD.:     1.292 HEAT: -110.6958
 CYCLE:   167 TIME:   0.008 TIME LEFT:  2.00D  GRAD.:     2.083 HEAT: -110.6950
 CYCLE:   168 TIME:   0.000 TIME LEFT:  2.00D  GRAD.:     1.082 HEAT: -110.6966
 CYCLE:   169 TIME:   0.008 TIME LEFT:  2.00D  GRAD.:     0.496 HEAT: -110.6973
 CYCLE:   170 TIME:   0.008 TIME LEFT:  2.00D  GRAD.:     0.269 HEAT: -110.6976
 CYCLE:   171 TIME:   0.008 TIME LEFT:  2.00D  GRAD.:     0.371 HEAT: -110.6976
 CYCLE:   172 TIME:   0.000 TIME LEFT:  2.00D  GRAD.:     0.217 HEAT: -110.6977
 CYCLE:   173 TIME:   0.008 TIME LEFT:  2.00D  GRAD.:     2.363 HEAT: -110.7024
 CYCLE:   174 TIME:   0.008 TIME LEFT:  2.00D  GRAD.:     0.907 HEAT: -110.7065
 CYCLE:   175 TIME:   0.008 TIME LEFT:  2.00D  GRAD.:     0.725 HEAT: -110.7075
 CYCLE:   176 TIME:   0.000 TIME LEFT:  2.00D  GRAD.:     0.589 HEAT: -110.7077
 CYCLE:   177 TIME:   0.008 TIME LEFT:  2.00D  GRAD.:     0.428 HEAT: -110.7079
 CYCLE:   178 TIME:   0.008 TIME LEFT:  2.00D  GRAD.:     0.694 HEAT: -110.7078
 CYCLE:   179 TIME:   0.008 TIME LEFT:  2.00D  GRAD.:     0.234 HEAT: -110.7087
 CYCLE:   180 TIME:   0.000 TIME LEFT:  2.00D  GRAD.:     0.665 HEAT: -110.7092
 CYCLE:   181 TIME:   0.008 TIME LEFT:  2.00D  GRAD.:     0.253 HEAT: -110.7096
 CYCLE:   182 TIME:   0.008 TIME LEFT:  2.00D  GRAD.:     0.153 HEAT: -110.7096
 CYCLE:   183 TIME:   0.008 TIME LEFT:  2.00D  GRAD.:     0.143 HEAT: -110.7096
 CYCLE:   184 TIME:   0.000 TIME LEFT:  2.00D  GRAD.:     0.574 HEAT: -110.7093
 CYCLE:   185 TIME:   0.008 TIME LEFT:  2.00D  GRAD.:     0.139 HEAT: -110.7099
 CYCLE:   186 TIME:   0.008 TIME LEFT:  2.00D  GRAD.:     0.095 HEAT: -110.7099
 CYCLE:   187 TIME:   0.008 TIME LEFT:  2.00D  GRAD.:     0.144 HEAT: -110.7102
 CYCLE:   188 TIME:   0.000 TIME LEFT:  2.00D  GRAD.:     0.425 HEAT: -110.7104
 CYCLE:   189 TIME:   0.008 TIME LEFT:  2.00D  GRAD.:     1.156 HEAT: -110.7136
 CYCLE:   190 TIME:   0.008 TIME LEFT:  2.00D  GRAD.:     1.379 HEAT: -110.7150
 CYCLE:   191 TIME:   0.000 TIME LEFT:  2.00D  GRAD.:     0.843 HEAT: -110.7151
 CYCLE:   192 TIME:   0.008 TIME LEFT:  2.00D  GRAD.:     0.369 HEAT: -110.7162
 CYCLE:   193 TIME:   0.008 TIME LEFT:  2.00D  GRAD.:     0.309 HEAT: -110.7164
 CYCLE:   194 TIME:   0.008 TIME LEFT:  2.00D  GRAD.:     0.174 HEAT: -110.7165
 CYCLE:   195 TIME:   0.000 TIME LEFT:  2.00D  GRAD.:     0.213 HEAT: -110.7165
 CYCLE:   196 TIME:   0.008 TIME LEFT:  2.00D  GRAD.:     0.086 HEAT: -110.7169
 CYCLE:   197 TIME:   0.008 TIME LEFT:  2.00D  GRAD.:     0.078 HEAT: -110.7169
 CYCLE:   198 TIME:   0.000 TIME LEFT:  2.00D  GRAD.:     0.093 HEAT: -110.7170
 CYCLE:   199 TIME:   0.008 TIME LEFT:  2.00D  GRAD.:     0.209 HEAT: -110.7170
 CYCLE:   200 TIME:   0.008 TIME LEFT:  2.00D  GRAD.:     0.253 HEAT: -110.7173
 CYCLE:   201 TIME:   0.008 TIME LEFT:  2.00D  GRAD.:     0.147 HEAT: -110.7175
 CYCLE:   202 TIME:   0.000 TIME LEFT:  2.00D  GRAD.:     1.084 HEAT: -110.7168
 CYCLE:   203 TIME:   0.008 TIME LEFT:  2.00D  GRAD.:     0.137 HEAT: -110.7181
 CYCLE:   204 TIME:   0.008 TIME LEFT:  2.00D  GRAD.:     0.134 HEAT: -110.7182
 CYCLE:   205 TIME:   0.008 TIME LEFT:  2.00D  GRAD.:     0.854 HEAT: -110.7179
 CYCLE:   206 TIME:   0.000 TIME LEFT:  2.00D  GRAD.:     0.207 HEAT: -110.7196
 CYCLE:   207 TIME:   0.008 TIME LEFT:  2.00D  GRAD.:     0.109 HEAT: -110.7196
 CYCLE:   208 TIME:   0.008 TIME LEFT:  2.00D  GRAD.:     1.388 HEAT: -110.7205
 CYCLE:   209 TIME:   0.000 TIME LEFT:  2.00D  GRAD.:     0.215 HEAT: -110.7220
 CYCLE:   210 TIME:   0.008 TIME LEFT:  2.00D  GRAD.:     0.084 HEAT: -110.7221
 CYCLE:   211 TIME:   0.008 TIME LEFT:  2.00D  GRAD.:     0.099 HEAT: -110.7221
 CYCLE:   212 TIME:   0.008 TIME LEFT:  2.00D  GRAD.:     0.738 HEAT: -110.7226
 CYCLE:   213 TIME:   0.000 TIME LEFT:  2.00D  GRAD.:     0.128 HEAT: -110.7232
 CYCLE:   214 TIME:   0.008 TIME LEFT:  2.00D  GRAD.:     0.100 HEAT: -110.7233
 CYCLE:   215 TIME:   0.008 TIME LEFT:  2.00D  GRAD.:     2.238 HEAT: -110.7197
 CYCLE:   216 TIME:   0.008 TIME LEFT:  2.00D  GRAD.:     0.334 HEAT: -110.7240
 CYCLE:   217 TIME:   0.000 TIME LEFT:  2.00D  GRAD.:     0.502 HEAT: -110.7242
 CYCLE:   218 TIME:   0.008 TIME LEFT:  2.00D  GRAD.:     0.567 HEAT: -110.7243
 CYCLE:   219 TIME:   0.008 TIME LEFT:  2.00D  GRAD.:     0.363 HEAT: -110.7243
 CYCLE:   220 TIME:   0.008 TIME LEFT:  2.00D  GRAD.:     0.742 HEAT: -110.7241
 CYCLE:   221 TIME:   0.000 TIME LEFT:  2.00D  GRAD.:     0.133 HEAT: -110.7245
 CYCLE:   222 TIME:   0.008 TIME LEFT:  2.00D  GRAD.:     0.538 HEAT: -110.7242
 CYCLE:   223 TIME:   0.008 TIME LEFT:  2.00D  GRAD.:     0.236 HEAT: -110.7244
 CYCLE:   224 TIME:   0.000 TIME LEFT:  2.00D  GRAD.:     0.228 HEAT: -110.7243
 CYCLE:   225 TIME:   0.008 TIME LEFT:  2.00D  GRAD.:     0.087 HEAT: -110.7244
 CYCLE:   226 TIME:   0.008 TIME LEFT:  2.00D  GRAD.:     0.771 HEAT: -110.7240
 CYCLE:   227 TIME:   0.008 TIME LEFT:  2.00D  GRAD.:     0.161 HEAT: -110.7247
 CYCLE:   228 TIME:   0.000 TIME LEFT:  2.00D  GRAD.:     0.118 HEAT: -110.7247
 CYCLE:   229 TIME:   0.008 TIME LEFT:  2.00D  GRAD.:     0.288 HEAT: -110.7248
 CYCLE:   230 TIME:   0.008 TIME LEFT:  2.00D  GRAD.:     0.906 HEAT: -110.7266
 CYCLE:   231 TIME:   0.008 TIME LEFT:  2.00D  GRAD.:     0.397 HEAT: -110.7276
 CYCLE:   232 TIME:   0.000 TIME LEFT:  2.00D  GRAD.:     0.295 HEAT: -110.7276
 CYCLE:   233 TIME:   0.008 TIME LEFT:  2.00D  GRAD.:     0.237 HEAT: -110.7277
 CYCLE:   234 TIME:   0.008 TIME LEFT:  2.00D  GRAD.:     0.246 HEAT: -110.7277
 CYCLE:   235 TIME:   0.008 TIME LEFT:  2.00D  GRAD.:     1.170 HEAT: -110.7272
 CYCLE:   236 TIME:   0.008 TIME LEFT:  2.00D  GRAD.:     0.300 HEAT: -110.7280
 CYCLE:   237 TIME:   0.000 TIME LEFT:  2.00D  GRAD.:     0.258 HEAT: -110.7281
 CYCLE:   238 TIME:   0.008 TIME LEFT:  2.00D  GRAD.:     1.254 HEAT: -110.7266
 CYCLE:   239 TIME:   0.008 TIME LEFT:  2.00D  GRAD.:     0.574 HEAT: -110.7290
 CYCLE:   240 TIME:   0.000 TIME LEFT:  2.00D  GRAD.:     0.448 HEAT: -110.7295
 CYCLE:   241 TIME:   0.008 TIME LEFT:  2.00D  GRAD.:     1.169 HEAT: -110.7321
 CYCLE:   242 TIME:   0.008 TIME LEFT:  2.00D  GRAD.:     0.768 HEAT: -110.7329
 CYCLE:   243 TIME:   0.008 TIME LEFT:  2.00D  GRAD.:     1.804 HEAT: -110.7326
 CYCLE:   244 TIME:   0.008 TIME LEFT:  2.00D  GRAD.:     0.292 HEAT: -110.7344
 CYCLE:   245 TIME:   0.008 TIME LEFT:  2.00D  GRAD.:     0.327 HEAT: -110.7344
 CYCLE:   246 TIME:   0.000 TIME LEFT:  2.00D  GRAD.:     0.209 HEAT: -110.7345
 CYCLE:   247 TIME:   0.008 TIME LEFT:  2.00D  GRAD.:     0.367 HEAT: -110.7344
 CYCLE:   248 TIME:   0.008 TIME LEFT:  2.00D  GRAD.:     0.070 HEAT: -110.7345
 CYCLE:   249 TIME:   0.000 TIME LEFT:  2.00D  GRAD.:     0.182 HEAT: -110.7344
 CYCLE:   250 TIME:   0.008 TIME LEFT:  2.00D  GRAD.:     0.083 HEAT: -110.7344
 CYCLE:   251 TIME:   0.008 TIME LEFT:  2.00D  GRAD.:     1.084 HEAT: -110.7344
 CYCLE:   252 TIME:   0.008 TIME LEFT:  2.00D  GRAD.:     0.212 HEAT: -110.7356
 CYCLE:   253 TIME:   0.000 TIME LEFT:  2.00D  GRAD.:     0.129 HEAT: -110.7357
 CYCLE:   254 TIME:   0.008 TIME LEFT:  2.00D  GRAD.:     5.442 HEAT: -110.7280
 CYCLE:   255 TIME:   0.008 TIME LEFT:  2.00D  GRAD.:     2.133 HEAT: -110.7314
 CYCLE:   256 TIME:   0.008 TIME LEFT:  2.00D  GRAD.:     3.431 HEAT: -110.7319
 CYCLE:   257 TIME:   0.008 TIME LEFT:  2.00D  GRAD.:     0.252 HEAT: -110.7360
 CYCLE:   258 TIME:   0.008 TIME LEFT:  2.00D  GRAD.:     1.378 HEAT: -110.7329
 CYCLE:   259 TIME:   0.000 TIME LEFT:  2.00D  GRAD.:     0.161 HEAT: -110.7359
 CYCLE:   260 TIME:   0.008 TIME LEFT:  2.00D  GRAD.:     0.079 HEAT: -110.7360
 CYCLE:   261 TIME:   0.008 TIME LEFT:  2.00D  GRAD.:     0.223 HEAT: -110.7361
 CYCLE:   262 TIME:   0.008 TIME LEFT:  2.00D  GRAD.:     0.078 HEAT: -110.7363
 CYCLE:   263 TIME:   0.000 TIME LEFT:  2.00D  GRAD.:     0.054 HEAT: -110.7362
 CYCLE:   264 TIME:   0.008 TIME LEFT:  2.00D  GRAD.:     0.056 HEAT: -110.7362
 CYCLE:   265 TIME:   0.008 TIME LEFT:  2.00D  GRAD.:     0.067 HEAT: -110.7362
 CYCLE:   266 TIME:   0.008 TIME LEFT:  2.00D  GRAD.:     0.057 HEAT: -110.7362
 CYCLE:   267 TIME:   0.000 TIME LEFT:  2.00D  GRAD.:     0.236 HEAT: -110.7361
 CYCLE:   268 TIME:   0.008 TIME LEFT:  2.00D  GRAD.:     0.632 HEAT: -110.7360
 CYCLE:   269 TIME:   0.008 TIME LEFT:  2.00D  GRAD.:     0.233 HEAT: -110.7363
 CYCLE:   270 TIME:   0.000 TIME LEFT:  2.00D  GRAD.:     0.217 HEAT: -110.7363
 CYCLE:   271 TIME:   0.008 TIME LEFT:  2.00D  GRAD.:     0.068 HEAT: -110.7364
 CYCLE:   272 TIME:   0.008 TIME LEFT:  2.00D  GRAD.:     0.317 HEAT: -110.7364
 CYCLE:   273 TIME:   0.008 TIME LEFT:  2.00D  GRAD.:     0.122 HEAT: -110.7365
 CYCLE:   274 TIME:   0.000 TIME LEFT:  2.00D  GRAD.:     0.087 HEAT: -110.7366
 CYCLE:   275 TIME:   0.008 TIME LEFT:  2.00D  GRAD.:     0.112 HEAT: -110.7366
 CYCLE:   276 TIME:   0.008 TIME LEFT:  2.00D  GRAD.:     0.203 HEAT: -110.7366
 CYCLE:   277 TIME:   0.000 TIME LEFT:  2.00D  GRAD.:     0.841 HEAT: -110.7355
 CYCLE:   278 TIME:   0.008 TIME LEFT:  2.00D  GRAD.:     0.093 HEAT: -110.7370
 CYCLE:   279 TIME:   0.008 TIME LEFT:  2.00D  GRAD.:     0.121 HEAT: -110.7370
 CYCLE:   280 TIME:   0.008 TIME LEFT:  2.00D  GRAD.:     1.010 HEAT: -110.7357
 CYCLE:   281 TIME:   0.000 TIME LEFT:  2.00D  GRAD.:     0.264 HEAT: -110.7381
 CYCLE:   282 TIME:   0.008 TIME LEFT:  2.00D  GRAD.:     0.117 HEAT: -110.7381
 CYCLE:   283 TIME:   0.008 TIME LEFT:  2.00D  GRAD.:     0.123 HEAT: -110.7382
 CYCLE:   284 TIME:   0.000 TIME LEFT:  2.00D  GRAD.:     0.145 HEAT: -110.7381
 CYCLE:   285 TIME:   0.008 TIME LEFT:  2.00D  GRAD.:     0.159 HEAT: -110.7381
 CYCLE:   286 TIME:   0.008 TIME LEFT:  2.00D  GRAD.:     0.120 HEAT: -110.7382
 CYCLE:   287 TIME:   0.008 TIME LEFT:  2.00D  GRAD.:     1.149 HEAT: -110.7366
 CYCLE:   288 TIME:   0.000 TIME LEFT:  2.00D  GRAD.:     0.144 HEAT: -110.7389
 CYCLE:   289 TIME:   0.008 TIME LEFT:  2.00D  GRAD.:     0.072 HEAT: -110.7389
 CYCLE:   290 TIME:   0.008 TIME LEFT:  2.00D  GRAD.:     1.671 HEAT: -110.7398
 CYCLE:   291 TIME:   0.008 TIME LEFT:  2.00D  GRAD.:     1.597 HEAT: -110.7395
 CYCLE:   292 TIME:   0.008 TIME LEFT:  2.00D  GRAD.:     0.323 HEAT: -110.7409
 CYCLE:   293 TIME:   0.008 TIME LEFT:  2.00D  GRAD.:     0.346 HEAT: -110.7409
 CYCLE:   294 TIME:   0.008 TIME LEFT:  2.00D  GRAD.:     0.276 HEAT: -110.7410
 CYCLE:   295 TIME:   0.000 TIME LEFT:  2.00D  GRAD.:     1.474 HEAT: -110.7405
 CYCLE:   296 TIME:   0.008 TIME LEFT:  2.00D  GRAD.:     0.367 HEAT: -110.7414
 CYCLE:   297 TIME:   0.008 TIME LEFT:  2.00D  GRAD.:     0.164 HEAT: -110.7414
 CYCLE:   298 TIME:   0.000 TIME LEFT:  2.00D  GRAD.:     0.289 HEAT: -110.7415
 CYCLE:   299 TIME:   0.008 TIME LEFT:  2.00D  GRAD.:     0.869 HEAT: -110.7415
 CYCLE:   300 TIME:   0.008 TIME LEFT:  2.00D  GRAD.:     0.344 HEAT: -110.7417
 CYCLE:   301 TIME:   0.008 TIME LEFT:  2.00D  GRAD.:     0.330 HEAT: -110.7418
 CYCLE:   302 TIME:   0.000 TIME LEFT:  2.00D  GRAD.:     0.498 HEAT: -110.7421
 CYCLE:   303 TIME:   0.008 TIME LEFT:  2.00D  GRAD.:     0.248 HEAT: -110.7423
 CYCLE:   304 TIME:   0.008 TIME LEFT:  2.00D  GRAD.:     0.185 HEAT: -110.7424
 CYCLE:   305 TIME:   0.000 TIME LEFT:  2.00D  GRAD.:     0.162 HEAT: -110.7424
 CYCLE:   306 TIME:   0.008 TIME LEFT:  2.00D  GRAD.:     0.166 HEAT: -110.7424
 CYCLE:   307 TIME:   0.008 TIME LEFT:  2.00D  GRAD.:     0.109 HEAT: -110.7424
 CYCLE:   308 TIME:   0.008 TIME LEFT:  2.00D  GRAD.:     0.122 HEAT: -110.7424
 CYCLE:   309 TIME:   0.000 TIME LEFT:  2.00D  GRAD.:     1.340 HEAT: -110.7420
 CYCLE:   310 TIME:   0.008 TIME LEFT:  2.00D  GRAD.:     0.452 HEAT: -110.7438
 CYCLE:   311 TIME:   0.008 TIME LEFT:  2.00D  GRAD.:     0.225 HEAT: -110.7438
 CYCLE:   312 TIME:   0.000 TIME LEFT:  2.00D  GRAD.:     0.095 HEAT: -110.7438
 CYCLE:   313 TIME:   0.008 TIME LEFT:  2.00D  GRAD.:     0.049 HEAT: -110.7439
 CYCLE:   314 TIME:   0.008 TIME LEFT:  2.00D  GRAD.:     0.036 HEAT: -110.7439
 CYCLE:   315 TIME:   0.008 TIME LEFT:  2.00D  GRAD.:     0.034 HEAT: -110.7439
 CYCLE:   316 TIME:   0.000 TIME LEFT:  2.00D  GRAD.:     0.040 HEAT: -110.7439
 CYCLE:   317 TIME:   0.008 TIME LEFT:  2.00D  GRAD.:     0.043 HEAT: -110.7439
 NUMERICAL PROBLEMS IN BRACKETING LAMDA  -6042.43887687565     
  -6042438.87687565       -6042.43887688170        3361485.63888908     
   4408.11358544918     
  GOING FOR FIXED STEP SIZE....
 NUMERICAL PROBLEMS IN BRACKETING LAMDA  -6042.43887687565     
  -6042438.87687565       -6042.43887688170        3361485.63888908     
   4408.11358544918     
  GOING FOR FIXED STEP SIZE....
 CYCLE:   318 TIME:   0.008 TIME LEFT:  2.00D  GRAD.:     0.232 HEAT: -110.7438
 CYCLE:   319 TIME:   0.008 TIME LEFT:  2.00D  GRAD.:     1.691 HEAT: -110.7404
 CYCLE:   320 TIME:   0.008 TIME LEFT:  2.00D  GRAD.:     0.961 HEAT: -110.7437
 CYCLE:   321 TIME:   0.008 TIME LEFT:  2.00D  GRAD.:     0.568 HEAT: -110.7442
 CYCLE:   322 TIME:   0.000 TIME LEFT:  2.00D  GRAD.:     0.278 HEAT: -110.7445
 CYCLE:   323 TIME:   0.008 TIME LEFT:  2.00D  GRAD.:     0.217 HEAT: -110.7446
 CYCLE:   324 TIME:   0.008 TIME LEFT:  2.00D  GRAD.:     0.140 HEAT: -110.7448
 CYCLE:   325 TIME:   0.000 TIME LEFT:  2.00D  GRAD.:     0.099 HEAT: -110.7448
 CYCLE:   326 TIME:   0.008 TIME LEFT:  2.00D  GRAD.:     0.114 HEAT: -110.7448
 CYCLE:   327 TIME:   0.008 TIME LEFT:  2.00D  GRAD.:     0.079 HEAT: -110.7448
 CYCLE:   328 TIME:   0.008 TIME LEFT:  2.00D  GRAD.:     0.111 HEAT: -110.7448
 CYCLE:   329 TIME:   0.000 TIME LEFT:  2.00D  GRAD.:     0.051 HEAT: -110.7448
 CYCLE:   330 TIME:   0.008 TIME LEFT:  2.00D  GRAD.:     0.100 HEAT: -110.7448
 CYCLE:   331 TIME:   0.008 TIME LEFT:  2.00D  GRAD.:     0.068 HEAT: -110.7448
 CYCLE:   332 TIME:   0.000 TIME LEFT:  2.00D  GRAD.:     0.061 HEAT: -110.7448
 CYCLE:   333 TIME:   0.008 TIME LEFT:  2.00D  GRAD.:     0.063 HEAT: -110.7448
 CYCLE:   334 TIME:   0.008 TIME LEFT:  2.00D  GRAD.:     0.554 HEAT: -110.7448
 CYCLE:   335 TIME:   0.008 TIME LEFT:  2.00D  GRAD.:     0.175 HEAT: -110.7450
 CYCLE:   336 TIME:   0.000 TIME LEFT:  2.00D  GRAD.:     0.148 HEAT: -110.7450
 CYCLE:   337 TIME:   0.008 TIME LEFT:  2.00D  GRAD.:     0.109 HEAT: -110.7450
 CYCLE:   338 TIME:   0.008 TIME LEFT:  2.00D  GRAD.:     0.118 HEAT: -110.7449
 CYCLE:   339 TIME:   0.008 TIME LEFT:  2.00D  GRAD.:     0.085 HEAT: -110.7450
 CYCLE:   340 TIME:   0.000 TIME LEFT:  2.00D  GRAD.:     0.107 HEAT: -110.7450
 CYCLE:   341 TIME:   0.008 TIME LEFT:  2.00D  GRAD.:     0.079 HEAT: -110.7450
 CYCLE:   342 TIME:   0.008 TIME LEFT:  2.00D  GRAD.:     0.069 HEAT: -110.7450
 CYCLE:   343 TIME:   0.000 TIME LEFT:  2.00D  GRAD.:     0.086 HEAT: -110.7450
 CYCLE:   344 TIME:   0.008 TIME LEFT:  2.00D  GRAD.:     0.140 HEAT: -110.7450
 CYCLE:   345 TIME:   0.008 TIME LEFT:  2.00D  GRAD.:     0.323 HEAT: -110.7450
 CYCLE:   346 TIME:   0.000 TIME LEFT:  2.00D  GRAD.:     0.249 HEAT: -110.7450
 CYCLE:   347 TIME:   0.008 TIME LEFT:  2.00D  GRAD.:     0.157 HEAT: -110.7450
 CYCLE:   348 TIME:   0.008 TIME LEFT:  2.00D  GRAD.:     0.187 HEAT: -110.7450
 CYCLE:   349 TIME:   0.000 TIME LEFT:  2.00D  GRAD.:     0.371 HEAT: -110.7450
 CYCLE:   350 TIME:   0.008 TIME LEFT:  2.00D  GRAD.:     0.221 HEAT: -110.7450
 CYCLE:   351 TIME:   0.008 TIME LEFT:  2.00D  GRAD.:     0.075 HEAT: -110.7450


 HEAT OF FORMATION IS ESSENTIALLY STATIONARY

 -------------------------------------------------------------------------------
 AUX LARGE CHARGE=0 SINGLET  PM7 GNORM=0.0
 K1



     GEOMETRY OPTIMISED USING EIGENVECTOR FOLLOWING (EF).     
     SCF FIELD WAS ACHIEVED                                   


                              PM7 CALCULATION
                                                       MOPAC2016 (Version: 20.225L)
                                                       Tue Feb  2 18:48:30 2021
                                                       No. of days remaining = 192




          FINAL HEAT OF FORMATION =       -110.74501 KCAL/MOL =    -463.35713 KJ/MOL


          TOTAL ENERGY            =      -1490.31525 EV
          ELECTRONIC ENERGY       =      -6850.47447 EV  POINT GROUP:     C1  
          CORE-CORE REPULSION     =       5360.15922 EV
          COSMO AREA              =        166.20 SQUARE ANGSTROMS
          COSMO VOLUME            =        160.91 CUBIC ANGSTROMS

          GRADIENT NORM           =          0.07526 = 0.01683 PER ATOM
          IONIZATION POTENTIAL    =         10.702733 EV
          HOMO LUMO ENERGIES (EV) =        -10.703  1.120
          NO. OF FILLED LEVELS    =         24
          MOLECULAR WEIGHT        =        116.1596

          MOLECULAR DIMENSIONS (Angstroms)

            Atom       Atom       Distance
            H    19    H     4     7.84030
            H    18    H    10     3.98282
            H    13    H     7     3.47587


          SCF CALCULATIONS        =        367
 
          WALL-CLOCK TIME         =          2.234 SECONDS
          COMPUTATION TIME        =         26.317 SECONDS




   ATOM   CHEMICAL          X               Y               Z
  NUMBER   SYMBOL      (ANGSTROMS)     (ANGSTROMS)     (ANGSTROMS)
 
     1       C         -3.49949324  *   2.00815816  *   2.51816613  *
     2       C         -2.46730969  *   1.12671712  *   1.81584378  *
     3       H         -3.25574103  *   3.07181551  *   2.41771643  *
     4       H         -3.54107848  *   1.78640917  *   3.59098454  *
     5       H         -4.50451466  *   1.85670144  *   2.11063763  *
     6       C         -2.39732288  *   1.41247109  *   0.30950525  *
     7       H         -2.71418890  *   0.06004788  *   1.97923221  *
     8       H         -1.46927406  *   1.27561176  *   2.27849595  *
     9       C         -1.61177553  *   2.69264147  *  -0.00708136  *
    10       H         -3.42118399  *   1.49875949  *  -0.10444868  *
    11       H         -1.93752036  *   0.55231766  *  -0.21686936  *
    12       C         -0.15226241  *   2.46329609  *   0.24837809  *
    13       H         -1.96833001  *   3.53396013  *   0.62494134  *
    14       H         -1.78421241  *   2.99736082  *  -1.06052880  *
    15       O          0.45223778  *   2.06701804  *  -0.90379019  *
    16       O          0.45311390  *   2.58818222  *   1.28048046  *
    17       C          1.84328155  *   1.77939908  *  -0.81619136  *
    18       H          2.39457267  *   2.66926742  *  -0.49377780  *
    19       H          2.10373023  *   1.49719488  *  -1.84249955  *
    20       H          2.01411713  *   0.95278255  *  -0.11850965  *

                             CARTESIAN COORDINATES

   1    C       -3.499493243     2.008158162     2.518166133
   2    C       -2.467309685     1.126717117     1.815843779
   3    H       -3.255741026     3.071815508     2.417716435
   4    H       -3.541078478     1.786409170     3.590984539
   5    H       -4.504514662     1.856701438     2.110637632
   6    C       -2.397322876     1.412471091     0.309505245
   7    H       -2.714188902     0.060047881     1.979232211
   8    H       -1.469274056     1.275611761     2.278495951
   9    C       -1.611775526     2.692641474    -0.007081364
  10    H       -3.421183989     1.498759485    -0.104448679
  11    H       -1.937520356     0.552317659    -0.216869364
  12    C       -0.152262410     2.463296092     0.248378092
  13    H       -1.968330013     3.533960125     0.624941342
  14    H       -1.784212414     2.997360819    -1.060528800
  15    O        0.452237782     2.067018039    -0.903790189
  16    O        0.453113899     2.588182222     1.280480461
  17    C        1.843281552     1.779399076    -0.816191364
  18    H        2.394572670     2.669267417    -0.493777802
  19    H        2.103730231     1.497194880    -1.842499546
  20    H        2.014117125     0.952782549    -0.118509652


           Empirical Formula: C6 H12 O2  =    20 atoms



      MOLECULAR POINT GROUP   :   C1  


                  EIGENVALUES  
 -31.37662 -29.89784 -29.17098 -26.47492 -24.55858 -22.82312 -20.69828 -19.43643
 -17.12431 -16.60915 -16.31672 -15.62605 -15.36682 -14.29666 -14.04893 -13.52269
 -13.41131 -13.07873 -12.68453 -11.97157 -11.80486 -11.59131 -11.15447 -10.70273
   1.11968   1.71401   3.37661   3.78942   4.08273   4.21254   4.46443   4.95112
   5.34050   5.47152   5.50074   5.55716   5.67636   5.84976   5.90089   6.08970
   6.16850   6.29505   6.63660   7.02432


              NET ATOMIC CHARGES AND DIPOLE CONTRIBUTIONS

  ATOM NO.   TYPE          CHARGE      No. of ELECS.   s-Pop       p-Pop       
    1          C          -0.432800        4.4328     1.05157     3.38123
    2          C          -0.257507        4.2575     1.05637     3.20114
    3          H           0.143211        0.8568     0.85679
    4          H           0.142517        0.8575     0.85748
    5          H           0.138916        0.8611     0.86108
    6          C          -0.251570        4.2516     1.05831     3.19326
    7          H           0.135218        0.8648     0.86478
    8          H           0.155979        0.8440     0.84402
    9          C          -0.348936        4.3489     1.06834     3.28059
   10          H           0.146624        0.8534     0.85338
   11          H           0.143845        0.8562     0.85615
   12          C           0.606370        3.3936     1.12453     2.26910
   13          H           0.178762        0.8212     0.82124
   14          H           0.171690        0.8283     0.82831
   15          O          -0.417200        6.4172     1.86701     4.55019
   16          O          -0.508807        6.5088     1.87610     4.63270
   17          C          -0.170767        4.1708     1.08519     3.08558
   18          H           0.140619        0.8594     0.85938
   19          H           0.144721        0.8553     0.85528
   20          H           0.139116        0.8609     0.86088
 DIPOLE           X         Y         Z       TOTAL
 POINT-CHG.    -1.061    -0.547    -1.501     1.918
 HYBRID         0.098     0.112     0.029     0.152
 SUM           -0.963    -0.435    -1.472     1.812


          ATOMIC ORBITAL ELECTRON POPULATIONS

     Atom    s        px        py        pz   
    1  C   1.05157   1.10788   1.13146   1.14189
    2  C   1.05637   1.10974   1.09971   0.99169
    3  H   0.85679
    4  H   0.85748
    5  H   0.86108
    6  C   1.05831   1.11696   1.03270   1.04360
    7  H   0.86478
    8  H   0.84402
    9  C   1.06834   0.99794   1.10256   1.18010
   10  H   0.85338
   11  H   0.85615
   12  C   1.12453   0.84758   0.66812   0.75340
   13  H   0.82124
   14  H   0.82831
   15  O   1.86701   1.30833   1.79659   1.44528
   16  O   1.87610   1.70005   1.53767   1.39498
   17  C   1.08519   0.80038   1.13791   1.14729
   18  H   0.85938
   19  H   0.85528
   20  H   0.86088

 **********************
 *                    *
 * JOB ENDED NORMALLY *
 *                    *
 **********************



 TOTAL JOB TIME:             2.24 SECONDS

 == MOPAC DONE ==
