 *******************************************************************************
 ** Site#: 30659        For non-commercial use only    Version 20.225L 64BITS **
 *******************************************************************************
 ** Cite this program as: MOPAC2016, Version: 20.225L, James J. P. Stewart,   **
 ** Stewart Computational Chemistry, web: HTTP://OpenMOPAC.net. Days left: 192**
 *******************************************************************************
 **                                                                           **
 **                                MOPAC2016                                  **
 **                                                                           **
 *******************************************************************************

                              PM7 CALCULATION RESULTS

 *******************************************************************************
 *  CALCULATION DONE:                                Tue Feb  2 18:37:45 2021  *
 *  PM7        - The PM7 Hamiltonian to be used
 *  SINGLET    - SPIN STATE DEFINED AS A SINGLET
 *
 *
 *
 *                 CHARGE ON SYSTEM = 0
 *
 *
 *
 *  T=         - A TIME OF 172800.0 SECONDS REQUESTED
 *  DUMP=N     - RESTART FILE WRITTEN EVERY 7200.0 SECONDS REQUESTED
 *  GNORM      - EXIT WHEN GRADIENT NORM DROPS BELOW 0.000
 *  AUX        - OUTPUT AUXILIARY INFORMATION
 *  LARGE      - EXPANDED OUTPUT TO BE PRINTED
 *******************************************************************************
 AUX LARGE CHARGE=0 SINGLET  PM7 GNORM=0.0
 K3

   ATOM   CHEMICAL          X               Y               Z
  NUMBER   SYMBOL      (ANGSTROMS)     (ANGSTROMS)     (ANGSTROMS)
 
     1       C         -4.67325000  *   2.48799000  *  -1.34784000  *
     2       C         -4.12649000  *   1.85795000  *  -0.06659000  *
     3       H         -4.30190000  *   3.52455000  *  -1.47778000  *
     4       H         -5.78151000  *   2.52918000  *  -1.29286000  *
     5       H         -4.38445000  *   1.87828000  *  -2.23016000  *
     6       C         -2.59791000  *   1.69337000  *  -0.06936000  *
     7       H         -4.58032000  *   0.84843000  *   0.03698000  *
     8       H         -4.43792000  *   2.46785000  *   0.80908000  *
     9       C         -1.84213000  *   3.03225000  *  -0.11015000  *
    10       H         -2.29701000  *   1.06193000  *  -0.93430000  *
    11       H         -2.31756000  *   1.16091000  *   0.86621000  *
    12       C         -0.34763000  *   2.85436000  *  -0.05026000  *
    13       H         -2.15683000  *   3.65376000  *   0.75608000  *
    14       H         -2.08075000  *   3.57436000  *  -1.04827000  *
    15       O          0.19726000  *   1.60984000  *   0.02329000  *
    16       O          0.36356000  *   3.84904000  *  -0.06982000  *
    17       C          1.54775000  *   1.32372000  *   0.08246000  *
    18       H          2.18057000  *   2.23663000  *   0.06413000  *
    19       H          1.82207000  *   0.68656000  *  -0.78337000  *
    20       H          1.75995000  *   0.76578000  *   1.01763000  *
 


          CARTESIAN COORDINATES 

    NO.       ATOM           X           Y           Z

     1         C         -4.6733      2.4880     -1.3478
     2         C         -4.1265      1.8580     -0.0666
     3         H         -4.3019      3.5246     -1.4778
     4         H         -5.7815      2.5292     -1.2929
     5         H         -4.3845      1.8783     -2.2302
     6         C         -2.5979      1.6934     -0.0694
     7         H         -4.5803      0.8484      0.0370
     8         H         -4.4379      2.4678      0.8091
     9         C         -1.8421      3.0322     -0.1101
    10         H         -2.2970      1.0619     -0.9343
    11         H         -2.3176      1.1609      0.8662
    12         C         -0.3476      2.8544     -0.0503
    13         H         -2.1568      3.6538      0.7561
    14         H         -2.0808      3.5744     -1.0483
    15         O          0.1973      1.6098      0.0233
    16         O          0.3636      3.8490     -0.0698
    17         C          1.5478      1.3237      0.0825
    18         H          2.1806      2.2366      0.0641
    19         H          1.8221      0.6866     -0.7834
    20         H          1.7600      0.7658      1.0176

 General Reference for PM7:
 "Optimization of Parameters for Semiempirical Methods VI: More Modifications to the 
 NDDO Approximations and Re-optimization of Parameters", J. J. P. Stewart, J. Mol. Mod., 1:32, 19 (2013)
 https://link.springer.com/article/10.1007/s00894-012-1667-x

           Empirical Formula: C6 H12 O2  =    20 atoms



      MOLECULAR POINT GROUP   :   C1  


 SINGLET STATE CALCULATION


      RHF CALCULATION, NO. OF DOUBLY OCCUPIED LEVELS = 24


          Geometry optimization using EF

  GNORM HAS BEEN SET TOO LOW, RESET TO 0.01

  SPECIFY LET AS KEYWORD TO ALLOW GNORM LESS THAN 0.01

          DIAGONAL MATRIX USED AS START HESSIAN

 CYCLE:     1 TIME:   0.023 TIME LEFT:  2.00D  GRAD.:   104.238 HEAT: -103.5361
 CYCLE:     2 TIME:   0.023 TIME LEFT:  2.00D  GRAD.:   148.072 HEAT: -104.4247
 CYCLE:     3 TIME:   0.008 TIME LEFT:  2.00D  GRAD.:    93.533 HEAT: -105.5216
 CYCLE:     4 TIME:   0.008 TIME LEFT:  2.00D  GRAD.:    56.543 HEAT: -107.1079
 CYCLE:     5 TIME:   0.016 TIME LEFT:  2.00D  GRAD.:    55.378 HEAT: -107.3781
 CYCLE:     6 TIME:   0.031 TIME LEFT:  2.00D  GRAD.:    25.980 HEAT: -108.3767
 CYCLE:     7 TIME:   0.016 TIME LEFT:  2.00D  GRAD.:    17.784 HEAT: -108.6509
 CYCLE:     8 TIME:   0.016 TIME LEFT:  2.00D  GRAD.:    19.227 HEAT: -108.9358
 CYCLE:     9 TIME:   0.008 TIME LEFT:  2.00D  GRAD.:    27.977 HEAT: -109.1131
 CYCLE:    10 TIME:   0.008 TIME LEFT:  2.00D  GRAD.:    14.789 HEAT: -109.4268
 CYCLE:    11 TIME:   0.016 TIME LEFT:  2.00D  GRAD.:    14.138 HEAT: -109.4693
 CYCLE:    12 TIME:   0.008 TIME LEFT:  2.00D  GRAD.:    12.305 HEAT: -109.5285
 CYCLE:    13 TIME:   0.008 TIME LEFT:  2.00D  GRAD.:    13.100 HEAT: -109.5593
 CYCLE:    14 TIME:   0.008 TIME LEFT:  2.00D  GRAD.:    13.493 HEAT: -109.5920
 CYCLE:    15 TIME:   0.008 TIME LEFT:  2.00D  GRAD.:    10.503 HEAT: -109.6538
 CYCLE:    16 TIME:   0.008 TIME LEFT:  2.00D  GRAD.:     6.301 HEAT: -109.7251
 CYCLE:    17 TIME:   0.008 TIME LEFT:  2.00D  GRAD.:     6.829 HEAT: -109.7844
 CYCLE:    18 TIME:   0.008 TIME LEFT:  2.00D  GRAD.:     9.041 HEAT: -109.8327
 CYCLE:    19 TIME:   0.008 TIME LEFT:  2.00D  GRAD.:     6.338 HEAT: -109.8786
 CYCLE:    20 TIME:   0.008 TIME LEFT:  2.00D  GRAD.:     6.621 HEAT: -109.8942
 CYCLE:    21 TIME:   0.016 TIME LEFT:  2.00D  GRAD.:     3.867 HEAT: -109.9226
 CYCLE:    22 TIME:   0.008 TIME LEFT:  2.00D  GRAD.:     3.654 HEAT: -109.9464
 CYCLE:    23 TIME:   0.008 TIME LEFT:  2.00D  GRAD.:     3.707 HEAT: -109.9644
 CYCLE:    24 TIME:   0.008 TIME LEFT:  2.00D  GRAD.:     4.107 HEAT: -109.9759
 CYCLE:    25 TIME:   0.008 TIME LEFT:  2.00D  GRAD.:     2.860 HEAT: -109.9900
 CYCLE:    26 TIME:   0.008 TIME LEFT:  2.00D  GRAD.:     3.032 HEAT: -110.0006
 CYCLE:    27 TIME:   0.008 TIME LEFT:  2.00D  GRAD.:     3.227 HEAT: -110.0088
 CYCLE:    28 TIME:   0.000 TIME LEFT:  2.00D  GRAD.:     2.027 HEAT: -110.0157
 CYCLE:    29 TIME:   0.008 TIME LEFT:  2.00D  GRAD.:     2.027 HEAT: -110.0226
 CYCLE:    30 TIME:   0.008 TIME LEFT:  2.00D  GRAD.:     1.607 HEAT: -110.0283
 CYCLE:    31 TIME:   0.000 TIME LEFT:  2.00D  GRAD.:     1.440 HEAT: -110.0330
 CYCLE:    32 TIME:   0.016 TIME LEFT:  2.00D  GRAD.:     1.492 HEAT: -110.0367
 CYCLE:    33 TIME:   0.000 TIME LEFT:  2.00D  GRAD.:     1.583 HEAT: -110.0419
 CYCLE:    34 TIME:   0.008 TIME LEFT:  2.00D  GRAD.:     1.664 HEAT: -110.0496
 CYCLE:    35 TIME:   0.008 TIME LEFT:  2.00D  GRAD.:     1.828 HEAT: -110.0571
 CYCLE:    36 TIME:   0.008 TIME LEFT:  2.00D  GRAD.:     1.763 HEAT: -110.0637
 CYCLE:    37 TIME:   0.008 TIME LEFT:  2.00D  GRAD.:     1.584 HEAT: -110.0682
 CYCLE:    38 TIME:   0.008 TIME LEFT:  2.00D  GRAD.:     1.236 HEAT: -110.0722
 CYCLE:    39 TIME:   0.008 TIME LEFT:  2.00D  GRAD.:     0.825 HEAT: -110.0756
 CYCLE:    40 TIME:   0.008 TIME LEFT:  2.00D  GRAD.:     0.513 HEAT: -110.0771
 CYCLE:    41 TIME:   0.000 TIME LEFT:  2.00D  GRAD.:     0.352 HEAT: -110.0776
 CYCLE:    42 TIME:   0.039 TIME LEFT:  2.00D  GRAD.:     0.328 HEAT: -110.0779
 CYCLE:    43 TIME:   0.008 TIME LEFT:  2.00D  GRAD.:     0.458 HEAT: -110.0785
 CYCLE:    44 TIME:   0.008 TIME LEFT:  2.00D  GRAD.:     0.661 HEAT: -110.0794
 CYCLE:    45 TIME:   0.016 TIME LEFT:  2.00D  GRAD.:     1.127 HEAT: -110.0818
 CYCLE:    46 TIME:   0.016 TIME LEFT:  2.00D  GRAD.:     1.142 HEAT: -110.0855
 CYCLE:    47 TIME:   0.008 TIME LEFT:  2.00D  GRAD.:     1.052 HEAT: -110.0893
 CYCLE:    48 TIME:   0.008 TIME LEFT:  2.00D  GRAD.:     0.901 HEAT: -110.0914
 CYCLE:    49 TIME:   0.008 TIME LEFT:  2.00D  GRAD.:     0.774 HEAT: -110.0933
 CYCLE:    50 TIME:   0.008 TIME LEFT:  2.00D  GRAD.:     0.581 HEAT: -110.0942
 CYCLE:    51 TIME:   0.000 TIME LEFT:  2.00D  GRAD.:     0.442 HEAT: -110.0951
 CYCLE:    52 TIME:   0.008 TIME LEFT:  2.00D  GRAD.:     0.349 HEAT: -110.0954
 CYCLE:    53 TIME:   0.008 TIME LEFT:  2.00D  GRAD.:     0.524 HEAT: -110.0961
 CYCLE:    54 TIME:   0.000 TIME LEFT:  2.00D  GRAD.:     0.483 HEAT: -110.0964
 CYCLE:    55 TIME:   0.008 TIME LEFT:  2.00D  GRAD.:     1.067 HEAT: -110.1006
 CYCLE:    56 TIME:   0.008 TIME LEFT:  2.00D  GRAD.:     0.741 HEAT: -110.1019
 CYCLE:    57 TIME:   0.008 TIME LEFT:  2.00D  GRAD.:     0.666 HEAT: -110.1038
 CYCLE:    58 TIME:   0.008 TIME LEFT:  2.00D  GRAD.:     0.512 HEAT: -110.1046
 CYCLE:    59 TIME:   0.008 TIME LEFT:  2.00D  GRAD.:     0.911 HEAT: -110.1048
 CYCLE:    60 TIME:   0.000 TIME LEFT:  2.00D  GRAD.:     0.366 HEAT: -110.1062
 CYCLE:    61 TIME:   0.008 TIME LEFT:  2.00D  GRAD.:     0.285 HEAT: -110.1064
 CYCLE:    62 TIME:   0.008 TIME LEFT:  2.00D  GRAD.:     0.364 HEAT: -110.1071
 CYCLE:    63 TIME:   0.008 TIME LEFT:  2.00D  GRAD.:     0.371 HEAT: -110.1074
 CYCLE:    64 TIME:   0.000 TIME LEFT:  2.00D  GRAD.:     0.723 HEAT: -110.1090
 CYCLE:    65 TIME:   0.008 TIME LEFT:  2.00D  GRAD.:     0.706 HEAT: -110.1097
 CYCLE:    66 TIME:   0.008 TIME LEFT:  2.00D  GRAD.:     1.515 HEAT: -110.1130
 CYCLE:    67 TIME:   0.008 TIME LEFT:  2.00D  GRAD.:     0.919 HEAT: -110.1151
 CYCLE:    68 TIME:   0.000 TIME LEFT:  2.00D  GRAD.:     0.703 HEAT: -110.1164
 CYCLE:    69 TIME:   0.016 TIME LEFT:  2.00D  GRAD.:     1.665 HEAT: -110.1194
 CYCLE:    70 TIME:   0.008 TIME LEFT:  2.00D  GRAD.:     0.571 HEAT: -110.1212
 CYCLE:    71 TIME:   0.008 TIME LEFT:  2.00D  GRAD.:     0.494 HEAT: -110.1220
 CYCLE:    72 TIME:   0.008 TIME LEFT:  2.00D  GRAD.:     0.582 HEAT: -110.1235
 CYCLE:    73 TIME:   0.008 TIME LEFT:  2.00D  GRAD.:     0.380 HEAT: -110.1241
 CYCLE:    74 TIME:   0.008 TIME LEFT:  2.00D  GRAD.:     0.394 HEAT: -110.1246
 CYCLE:    75 TIME:   0.008 TIME LEFT:  2.00D  GRAD.:     0.454 HEAT: -110.1253
 CYCLE:    76 TIME:   0.000 TIME LEFT:  2.00D  GRAD.:     0.571 HEAT: -110.1264
 CYCLE:    77 TIME:   0.008 TIME LEFT:  2.00D  GRAD.:     0.763 HEAT: -110.1280
 CYCLE:    78 TIME:   0.008 TIME LEFT:  2.00D  GRAD.:     1.665 HEAT: -110.1303
 CYCLE:    79 TIME:   0.008 TIME LEFT:  2.00D  GRAD.:     1.301 HEAT: -110.1329
 CYCLE:    80 TIME:   0.008 TIME LEFT:  2.00D  GRAD.:     2.417 HEAT: -110.1477
 CYCLE:    81 TIME:   0.008 TIME LEFT:  2.00D  GRAD.:     2.662 HEAT: -110.1623
 CYCLE:    82 TIME:   0.000 TIME LEFT:  2.00D  GRAD.:     5.828 HEAT: -110.1777
 CYCLE:    83 TIME:   0.008 TIME LEFT:  2.00D  GRAD.:     4.931 HEAT: -110.2068
 CYCLE:    84 TIME:   0.008 TIME LEFT:  2.00D  GRAD.:     3.889 HEAT: -110.2210
 CYCLE:    85 TIME:   0.000 TIME LEFT:  2.00D  GRAD.:     8.225 HEAT: -110.2523
 CYCLE:    86 TIME:   0.008 TIME LEFT:  2.00D  GRAD.:     3.982 HEAT: -110.3073
 CYCLE:    87 TIME:   0.008 TIME LEFT:  2.00D  GRAD.:     7.321 HEAT: -110.3684
 CYCLE:    88 TIME:   0.008 TIME LEFT:  2.00D  GRAD.:     8.734 HEAT: -110.3708
 CYCLE:    89 TIME:   0.008 TIME LEFT:  2.00D  GRAD.:     5.721 HEAT: -110.4270
 CYCLE:    90 TIME:   0.008 TIME LEFT:  2.00D  GRAD.:     6.523 HEAT: -110.4390
 CYCLE:    91 TIME:   0.000 TIME LEFT:  2.00D  GRAD.:     3.093 HEAT: -110.4592
 CYCLE:    92 TIME:   0.016 TIME LEFT:  2.00D  GRAD.:     7.365 HEAT: -110.4626
 CYCLE:    93 TIME:   0.008 TIME LEFT:  2.00D  GRAD.:     2.744 HEAT: -110.4913
 CYCLE:    94 TIME:   0.000 TIME LEFT:  2.00D  GRAD.:     2.533 HEAT: -110.5047
 CYCLE:    95 TIME:   0.008 TIME LEFT:  2.00D  GRAD.:     4.762 HEAT: -110.5098
 CYCLE:    96 TIME:   0.008 TIME LEFT:  2.00D  GRAD.:     2.019 HEAT: -110.5192
 CYCLE:    97 TIME:   0.000 TIME LEFT:  2.00D  GRAD.:     1.230 HEAT: -110.5238
 CYCLE:    98 TIME:   0.008 TIME LEFT:  2.00D  GRAD.:     1.496 HEAT: -110.5290
 CYCLE:    99 TIME:   0.008 TIME LEFT:  2.00D  GRAD.:     1.445 HEAT: -110.5326
 CYCLE:   100 TIME:   0.008 TIME LEFT:  2.00D  GRAD.:     1.371 HEAT: -110.5364
 CYCLE:   101 TIME:   0.000 TIME LEFT:  2.00D  GRAD.:     1.396 HEAT: -110.5399
 CYCLE:   102 TIME:   0.008 TIME LEFT:  2.00D  GRAD.:     1.779 HEAT: -110.5434
 CYCLE:   103 TIME:   0.008 TIME LEFT:  2.00D  GRAD.:     1.478 HEAT: -110.5464
 CYCLE:   104 TIME:   0.008 TIME LEFT:  2.00D  GRAD.:     2.404 HEAT: -110.5491
 CYCLE:   105 TIME:   0.008 TIME LEFT:  2.00D  GRAD.:     1.254 HEAT: -110.5519
 CYCLE:   106 TIME:   0.000 TIME LEFT:  2.00D  GRAD.:     1.216 HEAT: -110.5548
 CYCLE:   107 TIME:   0.008 TIME LEFT:  2.00D  GRAD.:     0.831 HEAT: -110.5559
 CYCLE:   108 TIME:   0.008 TIME LEFT:  2.00D  GRAD.:     0.618 HEAT: -110.5569
 CYCLE:   109 TIME:   0.008 TIME LEFT:  2.00D  GRAD.:     0.309 HEAT: -110.5573
 CYCLE:   110 TIME:   0.008 TIME LEFT:  2.00D  GRAD.:     0.218 HEAT: -110.5574
 CYCLE:   111 TIME:   0.008 TIME LEFT:  2.00D  GRAD.:     0.299 HEAT: -110.5574
 CYCLE:   112 TIME:   0.008 TIME LEFT:  2.00D  GRAD.:     0.216 HEAT: -110.5575
 CYCLE:   113 TIME:   0.008 TIME LEFT:  2.00D  GRAD.:     0.295 HEAT: -110.5576
 CYCLE:   114 TIME:   0.008 TIME LEFT:  2.00D  GRAD.:     0.129 HEAT: -110.5577
 CYCLE:   115 TIME:   0.008 TIME LEFT:  2.00D  GRAD.:     0.229 HEAT: -110.5575
 CYCLE:   116 TIME:   0.008 TIME LEFT:  2.00D  GRAD.:     0.129 HEAT: -110.5576
 CYCLE:   117 TIME:   0.008 TIME LEFT:  2.00D  GRAD.:     1.697 HEAT: -110.5541
 CYCLE:   118 TIME:   0.008 TIME LEFT:  2.00D  GRAD.:     0.223 HEAT: -110.5578
 CYCLE:   119 TIME:   0.008 TIME LEFT:  2.00D  GRAD.:     0.126 HEAT: -110.5577
 CYCLE:   120 TIME:   0.008 TIME LEFT:  2.00D  GRAD.:     0.130 HEAT: -110.5578
 CYCLE:   121 TIME:   0.000 TIME LEFT:  2.00D  GRAD.:     0.878 HEAT: -110.5584
 CYCLE:   122 TIME:   0.008 TIME LEFT:  2.00D  GRAD.:     0.578 HEAT: -110.5587
 CYCLE:   123 TIME:   0.008 TIME LEFT:  2.00D  GRAD.:     0.486 HEAT: -110.5589
 CYCLE:   124 TIME:   0.000 TIME LEFT:  2.00D  GRAD.:     0.385 HEAT: -110.5592
 CYCLE:   125 TIME:   0.008 TIME LEFT:  2.00D  GRAD.:     0.965 HEAT: -110.5598
 CYCLE:   126 TIME:   0.039 TIME LEFT:  2.00D  GRAD.:     0.725 HEAT: -110.5603
 CYCLE:   127 TIME:   0.008 TIME LEFT:  2.00D  GRAD.:     0.290 HEAT: -110.5610
 CYCLE:   128 TIME:   0.008 TIME LEFT:  2.00D  GRAD.:     1.293 HEAT: -110.5603
 CYCLE:   129 TIME:   0.031 TIME LEFT:  2.00D  GRAD.:     0.257 HEAT: -110.5618
 CYCLE:   130 TIME:   0.008 TIME LEFT:  2.00D  GRAD.:     0.237 HEAT: -110.5620
 CYCLE:   131 TIME:   0.008 TIME LEFT:  2.00D  GRAD.:     0.328 HEAT: -110.5623
 CYCLE:   132 TIME:   0.008 TIME LEFT:  2.00D  GRAD.:     0.247 HEAT: -110.5624
 CYCLE:   133 TIME:   0.008 TIME LEFT:  2.00D  GRAD.:     0.642 HEAT: -110.5606
 CYCLE:   134 TIME:   0.008 TIME LEFT:  2.00D  GRAD.:     0.112 HEAT: -110.5624
 CYCLE:   135 TIME:   0.000 TIME LEFT:  2.00D  GRAD.:     0.104 HEAT: -110.5625
 CYCLE:   136 TIME:   0.008 TIME LEFT:  2.00D  GRAD.:     0.132 HEAT: -110.5625
 CYCLE:   137 TIME:   0.008 TIME LEFT:  2.00D  GRAD.:     0.117 HEAT: -110.5626
 CYCLE:   138 TIME:   0.008 TIME LEFT:  2.00D  GRAD.:     0.127 HEAT: -110.5626
 CYCLE:   139 TIME:   0.000 TIME LEFT:  2.00D  GRAD.:     0.086 HEAT: -110.5627
 CYCLE:   140 TIME:   0.008 TIME LEFT:  2.00D  GRAD.:     0.695 HEAT: -110.5621
 CYCLE:   141 TIME:   0.008 TIME LEFT:  2.00D  GRAD.:     0.127 HEAT: -110.5626
 CYCLE:   142 TIME:   0.008 TIME LEFT:  2.00D  GRAD.:     0.084 HEAT: -110.5627
 CYCLE:   143 TIME:   0.023 TIME LEFT:  2.00D  GRAD.:     2.333 HEAT: -110.5581
 CYCLE:   144 TIME:   0.008 TIME LEFT:  2.00D  GRAD.:     0.081 HEAT: -110.5627
 CYCLE:   145 TIME:   0.016 TIME LEFT:  2.00D  GRAD.:     0.070 HEAT: -110.5627
 CYCLE:   146 TIME:   0.008 TIME LEFT:  2.00D  GRAD.:     0.083 HEAT: -110.5627
 CYCLE:   147 TIME:   0.016 TIME LEFT:  2.00D  GRAD.:     0.101 HEAT: -110.5628
 CYCLE:   148 TIME:   0.016 TIME LEFT:  2.00D  GRAD.:     1.245 HEAT: -110.5605
 CYCLE:   149 TIME:   0.008 TIME LEFT:  2.00D  GRAD.:     0.300 HEAT: -110.5632
 CYCLE:   150 TIME:   0.008 TIME LEFT:  2.00D  GRAD.:     0.187 HEAT: -110.5634
 CYCLE:   151 TIME:   0.008 TIME LEFT:  2.00D  GRAD.:     0.505 HEAT: -110.5636
 CYCLE:   152 TIME:   0.008 TIME LEFT:  2.00D  GRAD.:     0.808 HEAT: -110.5638
 CYCLE:   153 TIME:   0.008 TIME LEFT:  2.00D  GRAD.:     1.150 HEAT: -110.5641
 CYCLE:   154 TIME:   0.016 TIME LEFT:  2.00D  GRAD.:     2.593 HEAT: -110.5627
 CYCLE:   155 TIME:   0.008 TIME LEFT:  2.00D  GRAD.:     1.373 HEAT: -110.5649
 CYCLE:   156 TIME:   0.000 TIME LEFT:  2.00D  GRAD.:     0.760 HEAT: -110.5653
 CYCLE:   157 TIME:   0.008 TIME LEFT:  2.00D  GRAD.:     0.756 HEAT: -110.5657
 CYCLE:   158 TIME:   0.008 TIME LEFT:  2.00D  GRAD.:     0.316 HEAT: -110.5660
 CYCLE:   159 TIME:   0.008 TIME LEFT:  2.00D  GRAD.:     0.255 HEAT: -110.5661
 CYCLE:   160 TIME:   0.000 TIME LEFT:  2.00D  GRAD.:     0.336 HEAT: -110.5663
 CYCLE:   161 TIME:   0.008 TIME LEFT:  2.00D  GRAD.:     0.199 HEAT: -110.5664
 CYCLE:   162 TIME:   0.008 TIME LEFT:  2.00D  GRAD.:     0.148 HEAT: -110.5665
 CYCLE:   163 TIME:   0.008 TIME LEFT:  2.00D  GRAD.:     0.219 HEAT: -110.5668
 CYCLE:   164 TIME:   0.000 TIME LEFT:  2.00D  GRAD.:     0.118 HEAT: -110.5667
 CYCLE:   165 TIME:   0.008 TIME LEFT:  2.00D  GRAD.:     0.120 HEAT: -110.5669
 CYCLE:   166 TIME:   0.008 TIME LEFT:  2.00D  GRAD.:     0.086 HEAT: -110.5669
 CYCLE:   167 TIME:   0.008 TIME LEFT:  2.00D  GRAD.:     0.291 HEAT: -110.5669
 CYCLE:   168 TIME:   0.000 TIME LEFT:  2.00D  GRAD.:     0.181 HEAT: -110.5669
 CYCLE:   169 TIME:   0.008 TIME LEFT:  2.00D  GRAD.:     0.176 HEAT: -110.5670
 CYCLE:   170 TIME:   0.008 TIME LEFT:  2.00D  GRAD.:     0.225 HEAT: -110.5671
 CYCLE:   171 TIME:   0.008 TIME LEFT:  2.00D  GRAD.:     0.154 HEAT: -110.5671
 CYCLE:   172 TIME:   0.008 TIME LEFT:  2.00D  GRAD.:     0.340 HEAT: -110.5669
 CYCLE:   173 TIME:   0.008 TIME LEFT:  2.00D  GRAD.:     0.099 HEAT: -110.5672
 CYCLE:   174 TIME:   0.008 TIME LEFT:  2.00D  GRAD.:     0.062 HEAT: -110.5672
 CYCLE:   175 TIME:   0.008 TIME LEFT:  2.00D  GRAD.:     0.066 HEAT: -110.5673
 CYCLE:   176 TIME:   0.000 TIME LEFT:  2.00D  GRAD.:     0.057 HEAT: -110.5673
 CYCLE:   177 TIME:   0.008 TIME LEFT:  2.00D  GRAD.:     0.607 HEAT: -110.5669
 CYCLE:   178 TIME:   0.008 TIME LEFT:  2.00D  GRAD.:     0.245 HEAT: -110.5676
 CYCLE:   179 TIME:   0.008 TIME LEFT:  2.00D  GRAD.:     0.226 HEAT: -110.5676
 CYCLE:   180 TIME:   0.008 TIME LEFT:  2.00D  GRAD.:     0.132 HEAT: -110.5683
 CYCLE:   181 TIME:   0.008 TIME LEFT:  2.00D  GRAD.:     0.291 HEAT: -110.5687
 CYCLE:   182 TIME:   0.000 TIME LEFT:  2.00D  GRAD.:     0.157 HEAT: -110.5689
 CYCLE:   183 TIME:   0.008 TIME LEFT:  2.00D  GRAD.:     0.104 HEAT: -110.5690
 CYCLE:   184 TIME:   0.008 TIME LEFT:  2.00D  GRAD.:     0.335 HEAT: -110.5698
 CYCLE:   185 TIME:   0.008 TIME LEFT:  2.00D  GRAD.:     0.100 HEAT: -110.5698
 CYCLE:   186 TIME:   0.008 TIME LEFT:  2.00D  GRAD.:     0.057 HEAT: -110.5699
 CYCLE:   187 TIME:   0.000 TIME LEFT:  2.00D  GRAD.:     0.106 HEAT: -110.5699
 CYCLE:   188 TIME:   0.008 TIME LEFT:  2.00D  GRAD.:     0.298 HEAT: -110.5701
 CYCLE:   189 TIME:   0.008 TIME LEFT:  2.00D  GRAD.:     0.121 HEAT: -110.5702
 CYCLE:   190 TIME:   0.008 TIME LEFT:  2.00D  GRAD.:     0.141 HEAT: -110.5703
 CYCLE:   191 TIME:   0.000 TIME LEFT:  2.00D  GRAD.:     0.068 HEAT: -110.5704
 CYCLE:   192 TIME:   0.008 TIME LEFT:  2.00D  GRAD.:     0.049 HEAT: -110.5704
 CYCLE:   193 TIME:   0.008 TIME LEFT:  2.00D  GRAD.:     0.364 HEAT: -110.5708
 CYCLE:   194 TIME:   0.008 TIME LEFT:  2.00D  GRAD.:     0.207 HEAT: -110.5712
 CYCLE:   195 TIME:   0.008 TIME LEFT:  2.00D  GRAD.:     0.166 HEAT: -110.5713
 CYCLE:   196 TIME:   0.016 TIME LEFT:  2.00D  GRAD.:     3.397 HEAT: -110.5670
 CYCLE:   197 TIME:   0.008 TIME LEFT:  2.00D  GRAD.:     0.370 HEAT: -110.5717
 CYCLE:   198 TIME:   0.008 TIME LEFT:  2.00D  GRAD.:     0.521 HEAT: -110.5716
 CYCLE:   199 TIME:   0.008 TIME LEFT:  2.00D  GRAD.:     0.213 HEAT: -110.5720
 CYCLE:   200 TIME:   0.000 TIME LEFT:  2.00D  GRAD.:     0.298 HEAT: -110.5723
 CYCLE:   201 TIME:   0.008 TIME LEFT:  2.00D  GRAD.:     0.486 HEAT: -110.5729
 CYCLE:   202 TIME:   0.008 TIME LEFT:  2.00D  GRAD.:     0.654 HEAT: -110.5740
 CYCLE:   203 TIME:   0.008 TIME LEFT:  2.00D  GRAD.:     2.333 HEAT: -110.5739
 CYCLE:   204 TIME:   0.008 TIME LEFT:  2.00D  GRAD.:     0.528 HEAT: -110.5759
 CYCLE:   205 TIME:   0.008 TIME LEFT:  2.00D  GRAD.:     0.444 HEAT: -110.5767
 CYCLE:   206 TIME:   0.008 TIME LEFT:  2.00D  GRAD.:     0.303 HEAT: -110.5768
 CYCLE:   207 TIME:   0.000 TIME LEFT:  2.00D  GRAD.:     0.501 HEAT: -110.5770
 CYCLE:   208 TIME:   0.008 TIME LEFT:  2.00D  GRAD.:     0.257 HEAT: -110.5772
 CYCLE:   209 TIME:   0.008 TIME LEFT:  2.00D  GRAD.:     0.104 HEAT: -110.5772
 CYCLE:   210 TIME:   0.008 TIME LEFT:  2.00D  GRAD.:     0.110 HEAT: -110.5773
 CYCLE:   211 TIME:   0.008 TIME LEFT:  2.00D  GRAD.:     0.067 HEAT: -110.5773
 CYCLE:   212 TIME:   0.008 TIME LEFT:  2.00D  GRAD.:     0.340 HEAT: -110.5773
 CYCLE:   213 TIME:   0.008 TIME LEFT:  2.00D  GRAD.:     0.217 HEAT: -110.5774
 CYCLE:   214 TIME:   0.008 TIME LEFT:  2.00D  GRAD.:     0.181 HEAT: -110.5776
 CYCLE:   215 TIME:   0.008 TIME LEFT:  2.00D  GRAD.:     0.359 HEAT: -110.5776
 CYCLE:   216 TIME:   0.008 TIME LEFT:  2.00D  GRAD.:     0.191 HEAT: -110.5777
 CYCLE:   217 TIME:   0.000 TIME LEFT:  2.00D  GRAD.:     0.075 HEAT: -110.5777
 CYCLE:   218 TIME:   0.008 TIME LEFT:  2.00D  GRAD.:     0.515 HEAT: -110.5773
 CYCLE:   219 TIME:   0.008 TIME LEFT:  2.00D  GRAD.:     0.131 HEAT: -110.5782
 CYCLE:   220 TIME:   0.008 TIME LEFT:  2.00D  GRAD.:     0.048 HEAT: -110.5782
 CYCLE:   221 TIME:   0.008 TIME LEFT:  2.00D  GRAD.:     0.074 HEAT: -110.5782
 CYCLE:   222 TIME:   0.008 TIME LEFT:  2.00D  GRAD.:     1.626 HEAT: -110.5775
 CYCLE:   223 TIME:   0.000 TIME LEFT:  2.00D  GRAD.:     0.328 HEAT: -110.5787
 CYCLE:   224 TIME:   0.008 TIME LEFT:  2.00D  GRAD.:     0.328 HEAT: -110.5789
 CYCLE:   225 TIME:   0.008 TIME LEFT:  2.00D  GRAD.:     0.227 HEAT: -110.5789
 CYCLE:   226 TIME:   0.008 TIME LEFT:  2.00D  GRAD.:     0.117 HEAT: -110.5790
 CYCLE:   227 TIME:   0.008 TIME LEFT:  2.00D  GRAD.:     0.112 HEAT: -110.5790
 CYCLE:   228 TIME:   0.008 TIME LEFT:  2.00D  GRAD.:     0.237 HEAT: -110.5792
 CYCLE:   229 TIME:   0.008 TIME LEFT:  2.00D  GRAD.:     0.209 HEAT: -110.5793
 CYCLE:   230 TIME:   0.008 TIME LEFT:  2.00D  GRAD.:     0.079 HEAT: -110.5793
 CYCLE:   231 TIME:   0.000 TIME LEFT:  2.00D  GRAD.:     0.050 HEAT: -110.5793
 CYCLE:   232 TIME:   0.008 TIME LEFT:  2.00D  GRAD.:     0.045 HEAT: -110.5793
 CYCLE:   233 TIME:   0.008 TIME LEFT:  2.00D  GRAD.:     0.118 HEAT: -110.5793
 CYCLE:   234 TIME:   0.008 TIME LEFT:  2.00D  GRAD.:     0.067 HEAT: -110.5794
 CYCLE:   235 TIME:   0.000 TIME LEFT:  2.00D  GRAD.:     0.114 HEAT: -110.5794
 CYCLE:   236 TIME:   0.008 TIME LEFT:  2.00D  GRAD.:     0.875 HEAT: -110.5795
 CYCLE:   237 TIME:   0.008 TIME LEFT:  2.00D  GRAD.:     0.459 HEAT: -110.5797
 CYCLE:   238 TIME:   0.008 TIME LEFT:  2.00D  GRAD.:     0.507 HEAT: -110.5797
 CYCLE:   239 TIME:   0.000 TIME LEFT:  2.00D  GRAD.:     2.728 HEAT: -110.5716
 CYCLE:   240 TIME:   0.008 TIME LEFT:  2.00D  GRAD.:     0.369 HEAT: -110.5786
 CYCLE:   241 TIME:   0.008 TIME LEFT:  2.00D  GRAD.:     0.326 HEAT: -110.5786
 CYCLE:   242 TIME:   0.008 TIME LEFT:  2.00D  GRAD.:     0.241 HEAT: -110.5786
 CYCLE:   243 TIME:   0.008 TIME LEFT:  2.00D  GRAD.:     0.171 HEAT: -110.5786
 CYCLE:   244 TIME:   0.000 TIME LEFT:  2.00D  GRAD.:     0.172 HEAT: -110.5786
 CYCLE:   245 TIME:   0.008 TIME LEFT:  2.00D  GRAD.:     0.165 HEAT: -110.5786
 CYCLE:   246 TIME:   0.016 TIME LEFT:  2.00D  GRAD.:     0.196 HEAT: -110.5787
 CYCLE:   247 TIME:   0.000 TIME LEFT:  2.00D  GRAD.:     0.159 HEAT: -110.5787
 CYCLE:   248 TIME:   0.008 TIME LEFT:  2.00D  GRAD.:     0.141 HEAT: -110.5787
 CYCLE:   249 TIME:   0.008 TIME LEFT:  2.00D  GRAD.:     0.151 HEAT: -110.5787
 CYCLE:   250 TIME:   0.008 TIME LEFT:  2.00D  GRAD.:     0.155 HEAT: -110.5787
 CYCLE:   251 TIME:   0.008 TIME LEFT:  2.00D  GRAD.:     0.151 HEAT: -110.5787
 CYCLE:   252 TIME:   0.000 TIME LEFT:  2.00D  GRAD.:     0.214 HEAT: -110.5787
 CYCLE:   253 TIME:   0.008 TIME LEFT:  2.00D  GRAD.:     0.131 HEAT: -110.5787
 CYCLE:   254 TIME:   0.008 TIME LEFT:  2.00D  GRAD.:     0.092 HEAT: -110.5787


 HEAT OF FORMATION IS ESSENTIALLY STATIONARY

 -------------------------------------------------------------------------------
 AUX LARGE CHARGE=0 SINGLET  PM7 GNORM=0.0
 K3



     GEOMETRY OPTIMISED USING EIGENVECTOR FOLLOWING (EF).     
     SCF FIELD WAS ACHIEVED                                   


                              PM7 CALCULATION
                                                       MOPAC2016 (Version: 20.225L)
                                                       Tue Feb  2 18:37:47 2021
                                                       No. of days remaining = 192




          FINAL HEAT OF FORMATION =       -110.57870 KCAL/MOL =    -462.66128 KJ/MOL


          TOTAL ENERGY            =      -1490.31190 EV
          ELECTRONIC ENERGY       =      -6777.69869 EV  POINT GROUP:     C1  
          CORE-CORE REPULSION     =       5287.38678 EV
          COSMO AREA              =        168.15 SQUARE ANGSTROMS
          COSMO VOLUME            =        159.06 CUBIC ANGSTROMS

          GRADIENT NORM           =          0.09171 = 0.02051 PER ATOM
          IONIZATION POTENTIAL    =         10.735288 EV
          HOMO LUMO ENERGIES (EV) =        -10.735  1.139
          NO. OF FILLED LEVELS    =         24
          MOLECULAR WEIGHT        =        116.1596

          MOLECULAR DIMENSIONS (Angstroms)

            Atom       Atom       Distance
            H    20    H     4     7.92279
            H    13    H    19     3.71463
            H    18    H     7     3.33083


          SCF CALCULATIONS        =        264
 
          WALL-CLOCK TIME         =          1.992 SECONDS
          COMPUTATION TIME        =         23.374 SECONDS




   ATOM   CHEMICAL          X               Y               Z
  NUMBER   SYMBOL      (ANGSTROMS)     (ANGSTROMS)     (ANGSTROMS)
 
     1       C         -4.57408716  *   2.38759356  *  -1.43235151  *
     2       C         -4.09021034  *   1.89948539  *  -0.06695889  *
     3       H         -4.16020432  *   3.37035285  *  -1.68287810  *
     4       H         -5.66591343  *   2.47723315  *  -1.45674035  *
     5       H         -4.28439858  *   1.69505745  *  -2.23104425  *
     6       C         -2.56906921  *   1.70318769  *  -0.03076536  *
     7       H         -4.58714775  *   0.94029922  *   0.17989799  *
     8       H         -4.40403900  *   2.60769224  *   0.72314667  *
     9       C         -1.83118751  *   3.04373940  *   0.00388864  *
    10       H         -2.24133354  *   1.10860210  *  -0.90702636  *
    11       H         -2.28834486  *   1.09676493  *   0.85333017  *
    12       C         -0.34177861  *   2.90118315  *   0.06018778  *
    13       H         -2.16444481  *   3.64951740  *   0.87592758  *
    14       H         -2.09323981  *   3.65215000  *  -0.89108606  *
    15       O          0.03966412  *   1.61021641  *  -0.12149074  *
    16       O          0.45735478  *   3.78595354  *   0.23391321  *
    17       C          1.44279232  *   1.36673425  *  -0.10034868  *
    18       H          1.93364492  *   1.91634328  *  -0.91059073  *
    19       H          1.50720185  *   0.28368751  *  -0.25411160  *
    20       H          1.86415026  *   1.65976891  *   0.86716561  *

                             CARTESIAN COORDINATES

   1    C       -4.574087162     2.387593555    -1.432351513
   2    C       -4.090210345     1.899485387    -0.066958889
   3    H       -4.160204323     3.370352847    -1.682878101
   4    H       -5.665913431     2.477233149    -1.456740350
   5    H       -4.284398578     1.695057446    -2.231044249
   6    C       -2.569069207     1.703187689    -0.030765365
   7    H       -4.587147753     0.940299216     0.179897990
   8    H       -4.404039004     2.607692241     0.723146674
   9    C       -1.831187513     3.043739400     0.003888641
  10    H       -2.241333537     1.108602101    -0.907026362
  11    H       -2.288344856     1.096764925     0.853330173
  12    C       -0.341778609     2.901183151     0.060187783
  13    H       -2.164444807     3.649517400     0.875927583
  14    H       -2.093239810     3.652150001    -0.891086059
  15    O        0.039664123     1.610216408    -0.121490742
  16    O        0.457354777     3.785953544     0.233913209
  17    C        1.442792315     1.366734254    -0.100348678
  18    H        1.933644920     1.916343284    -0.910590726
  19    H        1.507201850     0.283687512    -0.254111603
  20    H        1.864150259     1.659768913     0.867165608


           Empirical Formula: C6 H12 O2  =    20 atoms



      MOLECULAR POINT GROUP   :   C1  


                  EIGENVALUES  
 -31.35513 -29.92799 -29.27992 -26.55797 -24.46885 -22.97297 -20.29578 -19.89321
 -17.07818 -16.82903 -16.34609 -15.60879 -15.15990 -14.55123 -14.02592 -13.74348
 -13.35510 -12.97112 -12.72199 -12.15599 -11.70898 -11.68114 -11.16900 -10.73529
   1.13862   1.66783   3.33305   3.70439   4.07441   4.18813   4.44485   4.96149
   5.24904   5.39497   5.46111   5.58398   5.68528   5.75325   5.85033   6.01044
   6.08846   6.40220   6.48107   6.89971


              NET ATOMIC CHARGES AND DIPOLE CONTRIBUTIONS

  ATOM NO.   TYPE          CHARGE      No. of ELECS.   s-Pop       p-Pop       
    1          C          -0.435682        4.4357     1.05179     3.38389
    2          C          -0.250240        4.2502     1.05522     3.19502
    3          H           0.142029        0.8580     0.85797
    4          H           0.139599        0.8604     0.86040
    5          H           0.144177        0.8558     0.85582
    6          C          -0.253623        4.2536     1.05681     3.19681
    7          H           0.135965        0.8640     0.86404
    8          H           0.136313        0.8637     0.86369
    9          C          -0.346813        4.3468     1.06759     3.27922
   10          H           0.153420        0.8466     0.84658
   11          H           0.145869        0.8541     0.85413
   12          C           0.598632        3.4014     1.12375     2.27762
   13          H           0.178515        0.8215     0.82149
   14          H           0.180099        0.8199     0.81990
   15          O          -0.407194        6.4072     1.86693     4.54027
   16          O          -0.515568        6.5156     1.87683     4.63874
   17          C          -0.172142        4.1721     1.08571     3.08643
   18          H           0.140746        0.8593     0.85925
   19          H           0.144800        0.8552     0.85520
   20          H           0.141099        0.8589     0.85890
 DIPOLE           X         Y         Z       TOTAL
 POINT-CHG.    -1.504    -1.790    -0.350     2.364
 HYBRID         0.144     0.169    -0.045     0.226
 SUM           -1.360    -1.622    -0.395     2.153


          ATOMIC ORBITAL ELECTRON POPULATIONS

     Atom    s        px        py        pz   
    1  C   1.05179   1.15517   1.16050   1.06823
    2  C   1.05522   1.00669   1.14563   1.04270
    3  H   0.85797
    4  H   0.86040
    5  H   0.85582
    6  C   1.05681   0.99872   1.01737   1.18072
    7  H   0.86404
    8  H   0.86369
    9  C   1.06759   0.99252   1.09302   1.19368
   10  H   0.84658
   11  H   0.85413
   12  C   1.12375   0.86524   0.74886   0.66352
   13  H   0.82149
   14  H   0.81990
   15  O   1.86693   1.31397   1.39009   1.83621
   16  O   1.87683   1.60509   1.51948   1.51416
   17  C   1.08571   0.80453   1.12423   1.15767
   18  H   0.85925
   19  H   0.85520
   20  H   0.85890

 **********************
 *                    *
 * JOB ENDED NORMALLY *
 *                    *
 **********************



 TOTAL JOB TIME:             2.00 SECONDS

 == MOPAC DONE ==
