 *******************************************************************************
 ** Site#: 30659        For non-commercial use only    Version 20.225L 64BITS **
 *******************************************************************************
 ** Cite this program as: MOPAC2016, Version: 20.225L, James J. P. Stewart,   **
 ** Stewart Computational Chemistry, web: HTTP://OpenMOPAC.net. Days left: 192**
 *******************************************************************************
 **                                                                           **
 **                                MOPAC2016                                  **
 **                                                                           **
 *******************************************************************************

                              PM7 CALCULATION RESULTS

 *******************************************************************************
 *  CALCULATION DONE:                                Tue Feb  2 18:39:15 2021  *
 *  PM7        - The PM7 Hamiltonian to be used
 *  SINGLET    - SPIN STATE DEFINED AS A SINGLET
 *
 *
 *
 *                 CHARGE ON SYSTEM = 0
 *
 *
 *
 *  T=         - A TIME OF 172800.0 SECONDS REQUESTED
 *  DUMP=N     - RESTART FILE WRITTEN EVERY 7200.0 SECONDS REQUESTED
 *  GNORM      - EXIT WHEN GRADIENT NORM DROPS BELOW 0.000
 *  AUX        - OUTPUT AUXILIARY INFORMATION
 *  LARGE      - EXPANDED OUTPUT TO BE PRINTED
 *******************************************************************************
 AUX LARGE CHARGE=0 SINGLET  PM7 GNORM=0.0
 K6

   ATOM   CHEMICAL          X               Y               Z
  NUMBER   SYMBOL      (ANGSTROMS)     (ANGSTROMS)     (ANGSTROMS)
 
     1       C         -4.70487000  *   2.67305000  *   1.11206000  *
     2       C         -4.12702000  *   1.86955000  *  -0.05325000  *
     3       H         -4.44207000  *   2.19280000  *   2.07847000  *
     4       H         -5.81111000  *   2.70660000  *   1.02218000  *
     5       H         -4.33277000  *   3.71744000  *   1.10552000  *
     6       C         -2.59975000  *   1.70634000  *   0.01347000  *
     7       H         -4.41261000  *   2.35094000  *  -1.01371000  *
     8       H         -4.58216000  *   0.85566000  *  -0.02661000  *
     9       C         -1.83973000  *   3.03742000  *  -0.11330000  *
    10       H         -2.29696000  *   1.04800000  *  -0.83052000  *
    11       H         -2.32447000  *   1.20211000  *   0.96602000  *
    12       C         -0.34493000  *   2.85227000  *  -0.10770000  *
    13       H         -2.10082000  *   3.70563000  *   0.73298000  *
    14       H         -2.12884000  *   3.53166000  *  -1.06610000  *
    15       O          0.19652000  *   1.60948000  *   0.00823000  *
    16       O          0.36963000  *   3.83959000  *  -0.20851000  *
    17       C          1.54690000  *   1.31732000  *   0.02580000  *
    18       H          2.18282000  *   2.22353000  *  -0.06691000  *
    19       H          1.78139000  *   0.63386000  *  -0.81609000  *
    20       H          1.79561000  *   0.80754000  *   0.97929000  *
 


          CARTESIAN COORDINATES 

    NO.       ATOM           X           Y           Z

     1         C         -4.7049      2.6730      1.1121
     2         C         -4.1270      1.8696     -0.0533
     3         H         -4.4421      2.1928      2.0785
     4         H         -5.8111      2.7066      1.0222
     5         H         -4.3328      3.7174      1.1055
     6         C         -2.5998      1.7063      0.0135
     7         H         -4.4126      2.3509     -1.0137
     8         H         -4.5822      0.8557     -0.0266
     9         C         -1.8397      3.0374     -0.1133
    10         H         -2.2970      1.0480     -0.8305
    11         H         -2.3245      1.2021      0.9660
    12         C         -0.3449      2.8523     -0.1077
    13         H         -2.1008      3.7056      0.7330
    14         H         -2.1288      3.5317     -1.0661
    15         O          0.1965      1.6095      0.0082
    16         O          0.3696      3.8396     -0.2085
    17         C          1.5469      1.3173      0.0258
    18         H          2.1828      2.2235     -0.0669
    19         H          1.7814      0.6339     -0.8161
    20         H          1.7956      0.8075      0.9793

 General Reference for PM7:
 "Optimization of Parameters for Semiempirical Methods VI: More Modifications to the 
 NDDO Approximations and Re-optimization of Parameters", J. J. P. Stewart, J. Mol. Mod., 1:32, 19 (2013)
 https://link.springer.com/article/10.1007/s00894-012-1667-x

           Empirical Formula: C6 H12 O2  =    20 atoms



      MOLECULAR POINT GROUP   :   C1  


 SINGLET STATE CALCULATION


      RHF CALCULATION, NO. OF DOUBLY OCCUPIED LEVELS = 24


          Geometry optimization using EF

  GNORM HAS BEEN SET TOO LOW, RESET TO 0.01

  SPECIFY LET AS KEYWORD TO ALLOW GNORM LESS THAN 0.01

          DIAGONAL MATRIX USED AS START HESSIAN

 CYCLE:     1 TIME:   0.016 TIME LEFT:  2.00D  GRAD.:   104.237 HEAT: -103.5364
 CYCLE:     2 TIME:   0.016 TIME LEFT:  2.00D  GRAD.:   152.303 HEAT: -104.3042
 CYCLE:     3 TIME:   0.008 TIME LEFT:  2.00D  GRAD.:    95.047 HEAT: -105.4493
 CYCLE:     4 TIME:   0.055 TIME LEFT:  2.00D  GRAD.:    58.456 HEAT: -107.0488
 CYCLE:     5 TIME:   0.008 TIME LEFT:  2.00D  GRAD.:    57.134 HEAT: -107.3061
 CYCLE:     6 TIME:   0.016 TIME LEFT:  2.00D  GRAD.:    26.426 HEAT: -108.3719
 CYCLE:     7 TIME:   0.016 TIME LEFT:  2.00D  GRAD.:    18.012 HEAT: -108.6570
 CYCLE:     8 TIME:   0.008 TIME LEFT:  2.00D  GRAD.:    19.828 HEAT: -108.9460
 CYCLE:     9 TIME:   0.008 TIME LEFT:  2.00D  GRAD.:    33.911 HEAT: -109.0054
 CYCLE:    10 TIME:   0.008 TIME LEFT:  2.00D  GRAD.:    17.915 HEAT: -109.3885
 CYCLE:    11 TIME:   0.016 TIME LEFT:  2.00D  GRAD.:    15.704 HEAT: -109.4509
 CYCLE:    12 TIME:   0.008 TIME LEFT:  2.00D  GRAD.:     9.716 HEAT: -109.5442
 CYCLE:    13 TIME:   0.008 TIME LEFT:  2.00D  GRAD.:    12.365 HEAT: -109.5668
 CYCLE:    14 TIME:   0.008 TIME LEFT:  2.00D  GRAD.:    12.884 HEAT: -109.5987
 CYCLE:    15 TIME:   0.008 TIME LEFT:  2.00D  GRAD.:    12.499 HEAT: -109.6534
 CYCLE:    16 TIME:   0.008 TIME LEFT:  2.00D  GRAD.:     6.965 HEAT: -109.7308
 CYCLE:    17 TIME:   0.008 TIME LEFT:  2.00D  GRAD.:     5.951 HEAT: -109.7893
 CYCLE:    18 TIME:   0.008 TIME LEFT:  2.00D  GRAD.:     8.625 HEAT: -109.8297
 CYCLE:    19 TIME:   0.008 TIME LEFT:  2.00D  GRAD.:     6.349 HEAT: -109.8747
 CYCLE:    20 TIME:   0.008 TIME LEFT:  2.00D  GRAD.:     8.464 HEAT: -109.8821
 CYCLE:    21 TIME:   0.008 TIME LEFT:  2.00D  GRAD.:     3.638 HEAT: -109.9177
 CYCLE:    22 TIME:   0.008 TIME LEFT:  2.00D  GRAD.:     4.040 HEAT: -109.9354
 CYCLE:    23 TIME:   0.008 TIME LEFT:  2.00D  GRAD.:     4.471 HEAT: -109.9547
 CYCLE:    24 TIME:   0.008 TIME LEFT:  2.00D  GRAD.:     3.618 HEAT: -109.9695
 CYCLE:    25 TIME:   0.008 TIME LEFT:  2.00D  GRAD.:     2.614 HEAT: -109.9841
 CYCLE:    26 TIME:   0.008 TIME LEFT:  2.00D  GRAD.:     2.934 HEAT: -109.9956
 CYCLE:    27 TIME:   0.008 TIME LEFT:  2.00D  GRAD.:     3.257 HEAT: -110.0052
 CYCLE:    28 TIME:   0.008 TIME LEFT:  2.00D  GRAD.:     2.357 HEAT: -110.0130
 CYCLE:    29 TIME:   0.008 TIME LEFT:  2.00D  GRAD.:     1.916 HEAT: -110.0209
 CYCLE:    30 TIME:   0.008 TIME LEFT:  2.00D  GRAD.:     1.553 HEAT: -110.0277
 CYCLE:    31 TIME:   0.008 TIME LEFT:  2.00D  GRAD.:     1.383 HEAT: -110.0329
 CYCLE:    32 TIME:   0.008 TIME LEFT:  2.00D  GRAD.:     1.435 HEAT: -110.0375
 CYCLE:    33 TIME:   0.008 TIME LEFT:  2.00D  GRAD.:     1.612 HEAT: -110.0430
 CYCLE:    34 TIME:   0.008 TIME LEFT:  2.00D  GRAD.:     1.853 HEAT: -110.0504
 CYCLE:    35 TIME:   0.008 TIME LEFT:  2.00D  GRAD.:     1.943 HEAT: -110.0584
 CYCLE:    36 TIME:   0.008 TIME LEFT:  2.00D  GRAD.:     1.783 HEAT: -110.0650
 CYCLE:    37 TIME:   0.008 TIME LEFT:  2.00D  GRAD.:     1.483 HEAT: -110.0699
 CYCLE:    38 TIME:   0.008 TIME LEFT:  2.00D  GRAD.:     1.227 HEAT: -110.0735
 CYCLE:    39 TIME:   0.008 TIME LEFT:  2.00D  GRAD.:     0.928 HEAT: -110.0766
 CYCLE:    40 TIME:   0.008 TIME LEFT:  2.00D  GRAD.:     0.634 HEAT: -110.0782
 CYCLE:    41 TIME:   0.008 TIME LEFT:  2.00D  GRAD.:     0.442 HEAT: -110.0788
 CYCLE:    42 TIME:   0.008 TIME LEFT:  2.00D  GRAD.:     0.340 HEAT: -110.0791
 CYCLE:    43 TIME:   0.008 TIME LEFT:  2.00D  GRAD.:     0.412 HEAT: -110.0797
 CYCLE:    44 TIME:   0.008 TIME LEFT:  2.00D  GRAD.:     0.707 HEAT: -110.0808
 CYCLE:    45 TIME:   0.008 TIME LEFT:  2.00D  GRAD.:     0.986 HEAT: -110.0823
 CYCLE:    46 TIME:   0.008 TIME LEFT:  2.00D  GRAD.:     1.417 HEAT: -110.0859
 CYCLE:    47 TIME:   0.008 TIME LEFT:  2.00D  GRAD.:     1.185 HEAT: -110.0903
 CYCLE:    48 TIME:   0.023 TIME LEFT:  2.00D  GRAD.:     0.947 HEAT: -110.0932
 CYCLE:    49 TIME:   0.008 TIME LEFT:  2.00D  GRAD.:     1.004 HEAT: -110.0944
 CYCLE:    50 TIME:   0.008 TIME LEFT:  2.00D  GRAD.:     0.749 HEAT: -110.0959
 CYCLE:    51 TIME:   0.039 TIME LEFT:  2.00D  GRAD.:     0.463 HEAT: -110.0970
 CYCLE:    52 TIME:   0.023 TIME LEFT:  2.00D  GRAD.:     0.366 HEAT: -110.0976
 CYCLE:    53 TIME:   0.008 TIME LEFT:  2.00D  GRAD.:     1.168 HEAT: -110.0909
 CYCLE:    54 TIME:   0.031 TIME LEFT:  2.00D  GRAD.:     0.428 HEAT: -110.0982
 CYCLE:    55 TIME:   0.008 TIME LEFT:  2.00D  GRAD.:     0.351 HEAT: -110.0985
 CYCLE:    56 TIME:   0.000 TIME LEFT:  2.00D  GRAD.:     0.370 HEAT: -110.0991
 CYCLE:    57 TIME:   0.008 TIME LEFT:  2.00D  GRAD.:     0.527 HEAT: -110.1002
 CYCLE:    58 TIME:   0.008 TIME LEFT:  2.00D  GRAD.:     0.683 HEAT: -110.1013
 CYCLE:    59 TIME:   0.008 TIME LEFT:  2.00D  GRAD.:     0.829 HEAT: -110.1024
 CYCLE:    60 TIME:   0.000 TIME LEFT:  2.00D  GRAD.:     0.599 HEAT: -110.1035
 CYCLE:    61 TIME:   0.008 TIME LEFT:  2.00D  GRAD.:     0.770 HEAT: -110.1051
 CYCLE:    62 TIME:   0.008 TIME LEFT:  2.00D  GRAD.:     0.649 HEAT: -110.1057
 CYCLE:    63 TIME:   0.008 TIME LEFT:  2.00D  GRAD.:     0.763 HEAT: -110.1079
 CYCLE:    64 TIME:   0.008 TIME LEFT:  2.00D  GRAD.:     0.652 HEAT: -110.1088
 CYCLE:    65 TIME:   0.008 TIME LEFT:  2.00D  GRAD.:     1.100 HEAT: -110.1101
 CYCLE:    66 TIME:   0.000 TIME LEFT:  2.00D  GRAD.:     0.768 HEAT: -110.1120
 CYCLE:    67 TIME:   0.008 TIME LEFT:  2.00D  GRAD.:     0.486 HEAT: -110.1142
 CYCLE:    68 TIME:   0.008 TIME LEFT:  2.00D  GRAD.:     0.567 HEAT: -110.1153
 CYCLE:    69 TIME:   0.000 TIME LEFT:  2.00D  GRAD.:     0.933 HEAT: -110.1162
 CYCLE:    70 TIME:   0.008 TIME LEFT:  2.00D  GRAD.:     0.757 HEAT: -110.1172
 CYCLE:    71 TIME:   0.008 TIME LEFT:  2.00D  GRAD.:     0.923 HEAT: -110.1197
 CYCLE:    72 TIME:   0.008 TIME LEFT:  2.00D  GRAD.:     1.164 HEAT: -110.1229
 CYCLE:    73 TIME:   0.000 TIME LEFT:  2.00D  GRAD.:     3.378 HEAT: -110.1260
 CYCLE:    74 TIME:   0.008 TIME LEFT:  2.00D  GRAD.:     2.067 HEAT: -110.1345
 CYCLE:    75 TIME:   0.008 TIME LEFT:  2.00D  GRAD.:     1.705 HEAT: -110.1410
 CYCLE:    76 TIME:   0.008 TIME LEFT:  2.00D  GRAD.:     5.073 HEAT: -110.1631
 CYCLE:    77 TIME:   0.008 TIME LEFT:  2.00D  GRAD.:     1.971 HEAT: -110.1684
 CYCLE:    78 TIME:   0.000 TIME LEFT:  2.00D  GRAD.:     1.744 HEAT: -110.1808
 CYCLE:    79 TIME:   0.016 TIME LEFT:  2.00D  GRAD.:     3.135 HEAT: -110.1909
 CYCLE:    80 TIME:   0.008 TIME LEFT:  2.00D  GRAD.:     3.708 HEAT: -110.2016
 CYCLE:    81 TIME:   0.008 TIME LEFT:  2.00D  GRAD.:     2.320 HEAT: -110.2145
 CYCLE:    82 TIME:   0.000 TIME LEFT:  2.00D  GRAD.:     3.963 HEAT: -110.2212
 CYCLE:    83 TIME:   0.008 TIME LEFT:  2.00D  GRAD.:     2.762 HEAT: -110.2368
 CYCLE:    84 TIME:   0.008 TIME LEFT:  2.00D  GRAD.:     2.574 HEAT: -110.2620
 CYCLE:    85 TIME:   0.008 TIME LEFT:  2.00D  GRAD.:     2.849 HEAT: -110.2776
 CYCLE:    86 TIME:   0.000 TIME LEFT:  2.00D  GRAD.:     4.706 HEAT: -110.3001
 CYCLE:    87 TIME:   0.008 TIME LEFT:  2.00D  GRAD.:     7.129 HEAT: -110.3122
 CYCLE:    88 TIME:   0.008 TIME LEFT:  2.00D  GRAD.:     7.575 HEAT: -110.3340
 CYCLE:    89 TIME:   0.008 TIME LEFT:  2.00D  GRAD.:     4.032 HEAT: -110.3598
 CYCLE:    90 TIME:   0.000 TIME LEFT:  2.00D  GRAD.:     3.076 HEAT: -110.3806
 CYCLE:    91 TIME:   0.008 TIME LEFT:  2.00D  GRAD.:     7.338 HEAT: -110.3948
 CYCLE:    92 TIME:   0.008 TIME LEFT:  2.00D  GRAD.:     3.074 HEAT: -110.4159
 CYCLE:    93 TIME:   0.008 TIME LEFT:  2.00D  GRAD.:     3.574 HEAT: -110.4318
 CYCLE:    94 TIME:   0.008 TIME LEFT:  2.00D  GRAD.:     1.804 HEAT: -110.4475
 CYCLE:    95 TIME:   0.008 TIME LEFT:  2.00D  GRAD.:     4.260 HEAT: -110.4553
 CYCLE:    96 TIME:   0.008 TIME LEFT:  2.00D  GRAD.:     3.100 HEAT: -110.4641
 CYCLE:    97 TIME:   0.000 TIME LEFT:  2.00D  GRAD.:     1.758 HEAT: -110.4699
 CYCLE:    98 TIME:   0.008 TIME LEFT:  2.00D  GRAD.:     1.892 HEAT: -110.4756
 CYCLE:    99 TIME:   0.008 TIME LEFT:  2.00D  GRAD.:     2.324 HEAT: -110.4825
 CYCLE:   100 TIME:   0.008 TIME LEFT:  2.00D  GRAD.:     2.368 HEAT: -110.4909
 CYCLE:   101 TIME:   0.000 TIME LEFT:  2.00D  GRAD.:     2.608 HEAT: -110.4986
 CYCLE:   102 TIME:   0.008 TIME LEFT:  2.00D  GRAD.:     2.088 HEAT: -110.5064
 CYCLE:   103 TIME:   0.016 TIME LEFT:  2.00D  GRAD.:     2.134 HEAT: -110.5119
 CYCLE:   104 TIME:   0.008 TIME LEFT:  2.00D  GRAD.:     1.774 HEAT: -110.5145
 CYCLE:   105 TIME:   0.008 TIME LEFT:  2.00D  GRAD.:     1.725 HEAT: -110.5164
 CYCLE:   106 TIME:   0.000 TIME LEFT:  2.00D  GRAD.:     1.031 HEAT: -110.5179
 CYCLE:   107 TIME:   0.008 TIME LEFT:  2.00D  GRAD.:     1.635 HEAT: -110.5194
 CYCLE:   108 TIME:   0.008 TIME LEFT:  2.00D  GRAD.:     1.605 HEAT: -110.5212
 CYCLE:   109 TIME:   0.008 TIME LEFT:  2.00D  GRAD.:     2.484 HEAT: -110.5252
 CYCLE:   110 TIME:   0.008 TIME LEFT:  2.00D  GRAD.:     2.866 HEAT: -110.5294
 CYCLE:   111 TIME:   0.000 TIME LEFT:  2.00D  GRAD.:     3.119 HEAT: -110.5360
 CYCLE:   112 TIME:   0.008 TIME LEFT:  2.00D  GRAD.:     1.761 HEAT: -110.5434
 CYCLE:   113 TIME:   0.008 TIME LEFT:  2.00D  GRAD.:     1.158 HEAT: -110.5474
 CYCLE:   114 TIME:   0.000 TIME LEFT:  2.00D  GRAD.:     2.543 HEAT: -110.5504
 CYCLE:   115 TIME:   0.008 TIME LEFT:  2.00D  GRAD.:     2.150 HEAT: -110.5568
 CYCLE:   116 TIME:   0.008 TIME LEFT:  2.00D  GRAD.:     1.141 HEAT: -110.5599
 CYCLE:   117 TIME:   0.008 TIME LEFT:  2.00D  GRAD.:     1.181 HEAT: -110.5618
 CYCLE:   118 TIME:   0.008 TIME LEFT:  2.00D  GRAD.:     0.446 HEAT: -110.5629
 CYCLE:   119 TIME:   0.000 TIME LEFT:  2.00D  GRAD.:     0.245 HEAT: -110.5634
 CYCLE:   120 TIME:   0.008 TIME LEFT:  2.00D  GRAD.:     0.230 HEAT: -110.5635
 CYCLE:   121 TIME:   0.008 TIME LEFT:  2.00D  GRAD.:     0.191 HEAT: -110.5636
 CYCLE:   122 TIME:   0.008 TIME LEFT:  2.00D  GRAD.:     0.114 HEAT: -110.5636
 CYCLE:   123 TIME:   0.008 TIME LEFT:  2.00D  GRAD.:     0.075 HEAT: -110.5636
 CYCLE:   124 TIME:   0.008 TIME LEFT:  2.00D  GRAD.:     0.115 HEAT: -110.5636
 CYCLE:   125 TIME:   0.000 TIME LEFT:  2.00D  GRAD.:     0.091 HEAT: -110.5636
 CYCLE:   126 TIME:   0.008 TIME LEFT:  2.00D  GRAD.:     1.210 HEAT: -110.5605
 CYCLE:   127 TIME:   0.008 TIME LEFT:  2.00D  GRAD.:     0.072 HEAT: -110.5637
 CYCLE:   128 TIME:   0.008 TIME LEFT:  2.00D  GRAD.:     0.072 HEAT: -110.5637
 CYCLE:   129 TIME:   0.000 TIME LEFT:  2.00D  GRAD.:     3.131 HEAT: -110.5611
 CYCLE:   130 TIME:   0.008 TIME LEFT:  2.00D  GRAD.:     0.102 HEAT: -110.5638
 CYCLE:   131 TIME:   0.008 TIME LEFT:  2.00D  GRAD.:     0.105 HEAT: -110.5638
 CYCLE:   132 TIME:   0.008 TIME LEFT:  2.00D  GRAD.:     0.347 HEAT: -110.5640
 CYCLE:   133 TIME:   0.008 TIME LEFT:  2.00D  GRAD.:     0.989 HEAT: -110.5639
 CYCLE:   134 TIME:   0.000 TIME LEFT:  2.00D  GRAD.:     0.470 HEAT: -110.5643
 CYCLE:   135 TIME:   0.008 TIME LEFT:  2.00D  GRAD.:     0.392 HEAT: -110.5645
 CYCLE:   136 TIME:   0.008 TIME LEFT:  2.00D  GRAD.:     2.029 HEAT: -110.5612
 CYCLE:   137 TIME:   0.008 TIME LEFT:  2.00D  GRAD.:     0.320 HEAT: -110.5648
 CYCLE:   138 TIME:   0.008 TIME LEFT:  2.00D  GRAD.:     0.240 HEAT: -110.5649
 CYCLE:   139 TIME:   0.008 TIME LEFT:  2.00D  GRAD.:     0.272 HEAT: -110.5652
 CYCLE:   140 TIME:   0.008 TIME LEFT:  2.00D  GRAD.:     0.294 HEAT: -110.5653
 CYCLE:   141 TIME:   0.016 TIME LEFT:  2.00D  GRAD.:     3.662 HEAT: -110.5593
 CYCLE:   142 TIME:   0.008 TIME LEFT:  2.00D  GRAD.:     0.158 HEAT: -110.5654
 CYCLE:   143 TIME:   0.008 TIME LEFT:  2.00D  GRAD.:     0.228 HEAT: -110.5652
 CYCLE:   144 TIME:   0.000 TIME LEFT:  2.00D  GRAD.:     0.125 HEAT: -110.5655
 CYCLE:   145 TIME:   0.008 TIME LEFT:  2.00D  GRAD.:     0.112 HEAT: -110.5656
 CYCLE:   146 TIME:   0.008 TIME LEFT:  2.00D  GRAD.:     1.160 HEAT: -110.5647
 CYCLE:   147 TIME:   0.008 TIME LEFT:  2.00D  GRAD.:     0.247 HEAT: -110.5659
 CYCLE:   148 TIME:   0.008 TIME LEFT:  2.00D  GRAD.:     0.511 HEAT: -110.5659
 CYCLE:   149 TIME:   0.008 TIME LEFT:  2.00D  GRAD.:     0.238 HEAT: -110.5661
 CYCLE:   150 TIME:   0.000 TIME LEFT:  2.00D  GRAD.:     0.143 HEAT: -110.5661
 CYCLE:   151 TIME:   0.008 TIME LEFT:  2.00D  GRAD.:     0.082 HEAT: -110.5662
 CYCLE:   152 TIME:   0.008 TIME LEFT:  2.00D  GRAD.:     0.309 HEAT: -110.5660
 CYCLE:   153 TIME:   0.008 TIME LEFT:  2.00D  GRAD.:     0.091 HEAT: -110.5662
 CYCLE:   154 TIME:   0.008 TIME LEFT:  2.00D  GRAD.:     0.311 HEAT: -110.5659
 CYCLE:   155 TIME:   0.000 TIME LEFT:  2.00D  GRAD.:     0.080 HEAT: -110.5662
 CYCLE:   156 TIME:   0.016 TIME LEFT:  2.00D  GRAD.:     0.105 HEAT: -110.5662
 CYCLE:   157 TIME:   0.008 TIME LEFT:  2.00D  GRAD.:     0.054 HEAT: -110.5663
 CYCLE:   158 TIME:   0.000 TIME LEFT:  2.00D  GRAD.:     0.090 HEAT: -110.5662
 CYCLE:   159 TIME:   0.008 TIME LEFT:  2.00D  GRAD.:     0.062 HEAT: -110.5662
 CYCLE:   160 TIME:   0.008 TIME LEFT:  2.00D  GRAD.:     0.057 HEAT: -110.5662
 CYCLE:   161 TIME:   0.008 TIME LEFT:  2.00D  GRAD.:     0.559 HEAT: -110.5660
 CYCLE:   162 TIME:   0.008 TIME LEFT:  2.00D  GRAD.:     0.920 HEAT: -110.5637
 CYCLE:   163 TIME:   0.008 TIME LEFT:  2.00D  GRAD.:     0.821 HEAT: -110.5659
 CYCLE:   164 TIME:   0.000 TIME LEFT:  2.00D  GRAD.:     0.777 HEAT: -110.5659
 CYCLE:   165 TIME:   0.008 TIME LEFT:  2.00D  GRAD.:     0.067 HEAT: -110.5664
 CYCLE:   166 TIME:   0.008 TIME LEFT:  2.00D  GRAD.:     0.101 HEAT: -110.5664
 CYCLE:   167 TIME:   0.008 TIME LEFT:  2.00D  GRAD.:     0.077 HEAT: -110.5664
 CYCLE:   168 TIME:   0.008 TIME LEFT:  2.00D  GRAD.:     0.071 HEAT: -110.5664
 CYCLE:   169 TIME:   0.000 TIME LEFT:  2.00D  GRAD.:     0.092 HEAT: -110.5664
 CYCLE:   170 TIME:   0.008 TIME LEFT:  2.00D  GRAD.:     0.123 HEAT: -110.5666
 CYCLE:   171 TIME:   0.008 TIME LEFT:  2.00D  GRAD.:     0.144 HEAT: -110.5667
 CYCLE:   172 TIME:   0.008 TIME LEFT:  2.00D  GRAD.:     0.200 HEAT: -110.5668
 CYCLE:   173 TIME:   0.008 TIME LEFT:  2.00D  GRAD.:     0.145 HEAT: -110.5669
 CYCLE:   174 TIME:   0.008 TIME LEFT:  2.00D  GRAD.:     0.587 HEAT: -110.5662
 CYCLE:   175 TIME:   0.008 TIME LEFT:  2.00D  GRAD.:     0.137 HEAT: -110.5669
 CYCLE:   176 TIME:   0.000 TIME LEFT:  2.00D  GRAD.:     0.107 HEAT: -110.5670
 CYCLE:   177 TIME:   0.008 TIME LEFT:  2.00D  GRAD.:     0.208 HEAT: -110.5672
 CYCLE:   178 TIME:   0.008 TIME LEFT:  2.00D  GRAD.:     0.126 HEAT: -110.5672
 CYCLE:   179 TIME:   0.016 TIME LEFT:  2.00D  GRAD.:     5.755 HEAT: -110.5598
 CYCLE:   180 TIME:   0.008 TIME LEFT:  2.00D  GRAD.:     0.362 HEAT: -110.5682
 CYCLE:   181 TIME:   0.008 TIME LEFT:  2.00D  GRAD.:     3.424 HEAT: -110.5611
 CYCLE:   182 TIME:   0.008 TIME LEFT:  2.00D  GRAD.:     0.763 HEAT: -110.5687
 CYCLE:   183 TIME:   0.008 TIME LEFT:  2.00D  GRAD.:     0.191 HEAT: -110.5689
 CYCLE:   184 TIME:   0.000 TIME LEFT:  2.00D  GRAD.:     0.190 HEAT: -110.5690
 CYCLE:   185 TIME:   0.008 TIME LEFT:  2.00D  GRAD.:     0.289 HEAT: -110.5695
 CYCLE:   186 TIME:   0.008 TIME LEFT:  2.00D  GRAD.:     0.320 HEAT: -110.5698
 CYCLE:   187 TIME:   0.008 TIME LEFT:  2.00D  GRAD.:     0.428 HEAT: -110.5702
 CYCLE:   188 TIME:   0.000 TIME LEFT:  2.00D  GRAD.:     0.311 HEAT: -110.5707
 CYCLE:   189 TIME:   0.008 TIME LEFT:  2.00D  GRAD.:     0.318 HEAT: -110.5713
 CYCLE:   190 TIME:   0.008 TIME LEFT:  2.00D  GRAD.:     0.321 HEAT: -110.5716
 CYCLE:   191 TIME:   0.000 TIME LEFT:  2.00D  GRAD.:     0.255 HEAT: -110.5718
 CYCLE:   192 TIME:   0.008 TIME LEFT:  2.00D  GRAD.:     0.201 HEAT: -110.5720
 CYCLE:   193 TIME:   0.008 TIME LEFT:  2.00D  GRAD.:     0.206 HEAT: -110.5719
 CYCLE:   194 TIME:   0.008 TIME LEFT:  2.00D  GRAD.:     0.129 HEAT: -110.5721
 CYCLE:   195 TIME:   0.008 TIME LEFT:  2.00D  GRAD.:     0.081 HEAT: -110.5722
 CYCLE:   196 TIME:   0.000 TIME LEFT:  2.00D  GRAD.:     0.403 HEAT: -110.5725
 CYCLE:   197 TIME:   0.008 TIME LEFT:  2.00D  GRAD.:     0.410 HEAT: -110.5729
 CYCLE:   198 TIME:   0.008 TIME LEFT:  2.00D  GRAD.:     0.738 HEAT: -110.5735
 CYCLE:   199 TIME:   0.008 TIME LEFT:  2.00D  GRAD.:     0.491 HEAT: -110.5737
 CYCLE:   200 TIME:   0.008 TIME LEFT:  2.00D  GRAD.:     2.256 HEAT: -110.5696
 CYCLE:   201 TIME:   0.000 TIME LEFT:  2.00D  GRAD.:     0.381 HEAT: -110.5745
 CYCLE:   202 TIME:   0.008 TIME LEFT:  2.00D  GRAD.:     0.320 HEAT: -110.5746
 CYCLE:   203 TIME:   0.008 TIME LEFT:  2.00D  GRAD.:     0.145 HEAT: -110.5748
 CYCLE:   204 TIME:   0.031 TIME LEFT:  2.00D  GRAD.:     4.874 HEAT: -110.5695
 CYCLE:   205 TIME:   0.008 TIME LEFT:  2.00D  GRAD.:     0.643 HEAT: -110.5751
 CYCLE:   206 TIME:   0.008 TIME LEFT:  2.00D  GRAD.:     0.488 HEAT: -110.5752
 CYCLE:   207 TIME:   0.008 TIME LEFT:  2.00D  GRAD.:     0.349 HEAT: -110.5755
 CYCLE:   208 TIME:   0.016 TIME LEFT:  2.00D  GRAD.:     0.391 HEAT: -110.5760
 CYCLE:   209 TIME:   0.008 TIME LEFT:  2.00D  GRAD.:     0.201 HEAT: -110.5762
 CYCLE:   210 TIME:   0.008 TIME LEFT:  2.00D  GRAD.:     0.190 HEAT: -110.5764
 CYCLE:   211 TIME:   0.008 TIME LEFT:  2.00D  GRAD.:     0.171 HEAT: -110.5764
 CYCLE:   212 TIME:   0.008 TIME LEFT:  2.00D  GRAD.:     0.210 HEAT: -110.5766
 CYCLE:   213 TIME:   0.008 TIME LEFT:  2.00D  GRAD.:     0.481 HEAT: -110.5768
 CYCLE:   214 TIME:   0.000 TIME LEFT:  2.00D  GRAD.:     0.392 HEAT: -110.5771
 CYCLE:   215 TIME:   0.008 TIME LEFT:  2.00D  GRAD.:     0.215 HEAT: -110.5773
 CYCLE:   216 TIME:   0.008 TIME LEFT:  2.00D  GRAD.:     0.227 HEAT: -110.5772
 CYCLE:   217 TIME:   0.008 TIME LEFT:  2.00D  GRAD.:     0.090 HEAT: -110.5773
 CYCLE:   218 TIME:   0.000 TIME LEFT:  2.00D  GRAD.:     0.106 HEAT: -110.5774
 CYCLE:   219 TIME:   0.008 TIME LEFT:  2.00D  GRAD.:     0.073 HEAT: -110.5774
 CYCLE:   220 TIME:   0.008 TIME LEFT:  2.00D  GRAD.:     1.074 HEAT: -110.5770
 CYCLE:   221 TIME:   0.000 TIME LEFT:  2.00D  GRAD.:     0.153 HEAT: -110.5778
 CYCLE:   222 TIME:   0.008 TIME LEFT:  2.00D  GRAD.:     0.101 HEAT: -110.5779
 CYCLE:   223 TIME:   0.008 TIME LEFT:  2.00D  GRAD.:     1.760 HEAT: -110.5772
 CYCLE:   224 TIME:   0.008 TIME LEFT:  2.00D  GRAD.:     0.292 HEAT: -110.5782
 CYCLE:   225 TIME:   0.000 TIME LEFT:  2.00D  GRAD.:     0.116 HEAT: -110.5783
 CYCLE:   226 TIME:   0.008 TIME LEFT:  2.00D  GRAD.:     0.144 HEAT: -110.5787
 CYCLE:   227 TIME:   0.008 TIME LEFT:  2.00D  GRAD.:     0.828 HEAT: -110.5781
 CYCLE:   228 TIME:   0.008 TIME LEFT:  2.00D  GRAD.:     0.146 HEAT: -110.5793
 CYCLE:   229 TIME:   0.000 TIME LEFT:  2.00D  GRAD.:     0.069 HEAT: -110.5794
 CYCLE:   230 TIME:   0.008 TIME LEFT:  2.00D  GRAD.:     0.352 HEAT: -110.5793
 CYCLE:   231 TIME:   0.008 TIME LEFT:  2.00D  GRAD.:     0.106 HEAT: -110.5796
 CYCLE:   232 TIME:   0.008 TIME LEFT:  2.00D  GRAD.:     0.095 HEAT: -110.5796
 CYCLE:   233 TIME:   0.000 TIME LEFT:  2.00D  GRAD.:     4.283 HEAT: -110.5722
 CYCLE:   234 TIME:   0.008 TIME LEFT:  2.00D  GRAD.:     0.107 HEAT: -110.5796
 CYCLE:   235 TIME:   0.008 TIME LEFT:  2.00D  GRAD.:     0.162 HEAT: -110.5797
 CYCLE:   236 TIME:   0.000 TIME LEFT:  2.00D  GRAD.:     0.067 HEAT: -110.5797
 CYCLE:   237 TIME:   0.008 TIME LEFT:  2.00D  GRAD.:     0.352 HEAT: -110.5797
 CYCLE:   238 TIME:   0.008 TIME LEFT:  2.00D  GRAD.:     0.190 HEAT: -110.5798
 CYCLE:   239 TIME:   0.000 TIME LEFT:  2.00D  GRAD.:     0.071 HEAT: -110.5799
 CYCLE:   240 TIME:   0.008 TIME LEFT:  2.00D  GRAD.:     0.667 HEAT: -110.5799
 CYCLE:   241 TIME:   0.008 TIME LEFT:  2.00D  GRAD.:     0.334 HEAT: -110.5801
 CYCLE:   242 TIME:   0.008 TIME LEFT:  2.00D  GRAD.:     0.335 HEAT: -110.5799
 CYCLE:   243 TIME:   0.000 TIME LEFT:  2.00D  GRAD.:     0.098 HEAT: -110.5802
 CYCLE:   244 TIME:   0.008 TIME LEFT:  2.00D  GRAD.:     0.341 HEAT: -110.5804
 CYCLE:   245 TIME:   0.008 TIME LEFT:  2.00D  GRAD.:     0.505 HEAT: -110.5806
 CYCLE:   246 TIME:   0.008 TIME LEFT:  2.00D  GRAD.:     0.469 HEAT: -110.5808
 CYCLE:   247 TIME:   0.000 TIME LEFT:  2.00D  GRAD.:     0.199 HEAT: -110.5810
 CYCLE:   248 TIME:   0.008 TIME LEFT:  2.00D  GRAD.:     0.102 HEAT: -110.5810
 CYCLE:   249 TIME:   0.008 TIME LEFT:  2.00D  GRAD.:     0.078 HEAT: -110.5810
 CYCLE:   250 TIME:   0.000 TIME LEFT:  2.00D  GRAD.:     0.111 HEAT: -110.5810
 CYCLE:   251 TIME:   0.008 TIME LEFT:  2.00D  GRAD.:     0.055 HEAT: -110.5810
 NUMERICAL PROBLEMS IN BRACKETING LAMDA  -22580.5661605571     
  -22580566.1605571       -22580.5661605797        13444353.3659652     
   630.330878678455     
  GOING FOR FIXED STEP SIZE....
 NUMERICAL PROBLEMS IN BRACKETING LAMDA  -22580.5661605571     
  -22580566.1605571       -22580.5661605797        13444353.3659652     
   630.330878678455     
  GOING FOR FIXED STEP SIZE....
 NUMERICAL PROBLEMS IN BRACKETING LAMDA  -22580.5661605571     
  -22580566.1605571       -22580.5661605797        13444353.3659652     
   630.330878678455     
  GOING FOR FIXED STEP SIZE....
 NUMERICAL PROBLEMS IN BRACKETING LAMDA  -22580.5661605571     
  -22580566.1605571       -22580.5661605797        13444353.3659652     
   630.330878678455     
  GOING FOR FIXED STEP SIZE....
 NUMERICAL PROBLEMS IN BRACKETING LAMDA  -22580.5661605571     
  -22580566.1605571       -22580.5661605797        13444353.3659652     
   630.330878678455     
  GOING FOR FIXED STEP SIZE....
 CYCLE:   252 TIME:   0.031 TIME LEFT:  2.00D  GRAD.:     0.517 HEAT: -110.5810
 CYCLE:   253 TIME:   0.000 TIME LEFT:  2.00D  GRAD.:     0.319 HEAT: -110.5812
 CYCLE:   254 TIME:   0.008 TIME LEFT:  2.00D  GRAD.:     0.265 HEAT: -110.5813
 CYCLE:   255 TIME:   0.008 TIME LEFT:  2.00D  GRAD.:     0.277 HEAT: -110.5814
 CYCLE:   256 TIME:   0.000 TIME LEFT:  2.00D  GRAD.:     0.158 HEAT: -110.5816
 CYCLE:   257 TIME:   0.008 TIME LEFT:  2.00D  GRAD.:     1.217 HEAT: -110.5817
 CYCLE:   258 TIME:   0.008 TIME LEFT:  2.00D  GRAD.:     0.337 HEAT: -110.5819
 CYCLE:   259 TIME:   0.000 TIME LEFT:  2.00D  GRAD.:     0.256 HEAT: -110.5820
 CYCLE:   260 TIME:   0.008 TIME LEFT:  2.00D  GRAD.:     0.740 HEAT: -110.5819
 CYCLE:   261 TIME:   0.008 TIME LEFT:  2.00D  GRAD.:     0.461 HEAT: -110.5822
 CYCLE:   262 TIME:   0.008 TIME LEFT:  2.00D  GRAD.:     0.131 HEAT: -110.5823
 CYCLE:   263 TIME:   0.008 TIME LEFT:  2.00D  GRAD.:     0.033 HEAT: -110.5823
 CYCLE:   264 TIME:   0.000 TIME LEFT:  2.00D  GRAD.:     0.069 HEAT: -110.5824
 CYCLE:   265 TIME:   0.016 TIME LEFT:  2.00D  GRAD.:     2.963 HEAT: -110.5797
 CYCLE:   266 TIME:   0.008 TIME LEFT:  2.00D  GRAD.:     0.163 HEAT: -110.5823
 CYCLE:   267 TIME:   0.008 TIME LEFT:  2.00D  GRAD.:     0.872 HEAT: -110.5818
 CYCLE:   268 TIME:   0.000 TIME LEFT:  2.00D  GRAD.:     0.170 HEAT: -110.5824
 CYCLE:   269 TIME:   0.008 TIME LEFT:  2.00D  GRAD.:     0.087 HEAT: -110.5824
 CYCLE:   270 TIME:   0.008 TIME LEFT:  2.00D  GRAD.:     0.024 HEAT: -110.5824
 CYCLE:   271 TIME:   0.008 TIME LEFT:  2.00D  GRAD.:     0.079 HEAT: -110.5824
 CYCLE:   272 TIME:   0.000 TIME LEFT:  2.00D  GRAD.:     0.021 HEAT: -110.5824
 CYCLE:   273 TIME:   0.008 TIME LEFT:  2.00D  GRAD.:     0.025 HEAT: -110.5824
 CYCLE:   274 TIME:   0.008 TIME LEFT:  2.00D  GRAD.:     0.014 HEAT: -110.5824
 CYCLE:   275 TIME:   0.000 TIME LEFT:  2.00D  GRAD.:     0.012 HEAT: -110.5824
 CYCLE:   276 TIME:   0.008 TIME LEFT:  2.00D  GRAD.:     0.014 HEAT: -110.5824
 CYCLE:   277 TIME:   0.008 TIME LEFT:  2.00D  GRAD.:     0.017 HEAT: -110.5824
 CYCLE:   278 TIME:   0.008 TIME LEFT:  2.00D  GRAD.:     0.008 HEAT: -110.5824

     GRADIENT =  0.00841 IS LESS THAN CUTOFF =  0.01000



 -------------------------------------------------------------------------------
 AUX LARGE CHARGE=0 SINGLET  PM7 GNORM=0.0
 K6



     GEOMETRY OPTIMISED USING EIGENVECTOR FOLLOWING (EF).     
     SCF FIELD WAS ACHIEVED                                   


                              PM7 CALCULATION
                                                       MOPAC2016 (Version: 20.225L)
                                                       Tue Feb  2 18:39:17 2021
                                                       No. of days remaining = 192




          FINAL HEAT OF FORMATION =       -110.58239 KCAL/MOL =    -462.67671 KJ/MOL


          TOTAL ENERGY            =      -1490.31211 EV
          ELECTRONIC ENERGY       =      -6777.55528 EV  POINT GROUP:     C1  
          CORE-CORE REPULSION     =       5287.24317 EV
          COSMO AREA              =        168.12 SQUARE ANGSTROMS
          COSMO VOLUME            =        159.34 CUBIC ANGSTROMS

          GRADIENT NORM           =          0.00841 = 0.00188 PER ATOM
          IONIZATION POTENTIAL    =         10.734733 EV
          HOMO LUMO ENERGIES (EV) =        -10.735  1.140
          NO. OF FILLED LEVELS    =         24
          MOLECULAR WEIGHT        =        116.1596

          MOLECULAR DIMENSIONS (Angstroms)

            Atom       Atom       Distance
            H    19    H     4     7.94352
            H    14    H    20     3.66073
            H     8    H    18     3.26577


          SCF CALCULATIONS        =        302
 
          WALL-CLOCK TIME         =          2.094 SECONDS
          COMPUTATION TIME        =         24.641 SECONDS




   ATOM   CHEMICAL          X               Y               Z
  NUMBER   SYMBOL      (ANGSTROMS)     (ANGSTROMS)     (ANGSTROMS)
 
     1       C         -4.61860166  *   2.61435353  *   1.19203099  *
     2       C         -4.08698338  *   1.89251358  *  -0.04602895  *
     3       H         -4.35193405  *   2.08132234  *   2.11188308  *
     4       H         -5.71113241  *   2.69450162  *   1.16501787  *
     5       H         -4.21884186  *   3.63097077  *   1.27295788  *
     6       C         -2.56537385  *   1.70327939  *   0.00476792  *
     7       H         -4.37370249  *   2.44496690  *  -0.96079797  *
     8       H         -4.57421129  *   0.90107908  *  -0.13331330  *
     9       C         -1.82738524  *   3.02218660  *  -0.23687272  *
    10       H         -2.25405755  *   0.95444319  *  -0.75089706  *
    11       H         -2.26746091  *   1.27172212  *   0.98118870  *
    12       C         -0.33676168  *   2.88523557  *  -0.20632239  *
    13       H         -2.12759275  *   3.77824489  *   0.52354381  *
    14       H         -2.12396025  *   3.46044909  *  -1.21585454  *
    15       O          0.03909699  *   1.61714990  *   0.10314305  *
    16       O          0.46747865  *   3.75693185  *  -0.41840654  *
    17       C          1.44238555  *   1.38110297  *   0.16353441  *
    18       H          1.89864056  *   2.00784972  *   0.93721429  *
    19       H          1.90244987  *   1.58360760  *  -0.80950541  *
    20       H          1.50246007  *   0.31790491  *   0.42181412  *

                             CARTESIAN COORDINATES

   1    C       -4.618601657     2.614353533     1.192030987
   2    C       -4.086983378     1.892513579    -0.046028946
   3    H       -4.351934054     2.081322336     2.111883084
   4    H       -5.711132406     2.694501617     1.165017873
   5    H       -4.218841855     3.630970765     1.272957878
   6    C       -2.565373849     1.703279385     0.004767915
   7    H       -4.373702488     2.444966900    -0.960797974
   8    H       -4.574211294     0.901079079    -0.133313295
   9    C       -1.827385245     3.022186603    -0.236872724
  10    H       -2.254057551     0.954443193    -0.750897057
  11    H       -2.267460915     1.271722118     0.981188697
  12    C       -0.336761684     2.885235571    -0.206322385
  13    H       -2.127592749     3.778244892     0.523543815
  14    H       -2.123960248     3.460449090    -1.215854544
  15    O        0.039096986     1.617149904     0.103143048
  16    O        0.467478653     3.756931852    -0.418406536
  17    C        1.442385555     1.381102967     0.163534408
  18    H        1.898640560     2.007849717     0.937214293
  19    H        1.902449866     1.583607599    -0.809505406
  20    H        1.502460071     0.317904910     0.421814117


           Empirical Formula: C6 H12 O2  =    20 atoms



      MOLECULAR POINT GROUP   :   C1  


                  EIGENVALUES  
 -31.35519 -29.92768 -29.27971 -26.55781 -24.46624 -22.97589 -20.29829 -19.88952
 -17.07038 -16.83764 -16.34475 -15.60539 -15.16274 -14.56097 -14.00331 -13.74527
 -13.37726 -12.95020 -12.72680 -12.15662 -11.71318 -11.67832 -11.16740 -10.73473
   1.14014   1.66769   3.33311   3.70266   4.07517   4.18922   4.44670   4.96314
   5.24748   5.39477   5.46124   5.58374   5.68659   5.75507   5.84844   6.01164
   6.08857   6.40229   6.48292   6.90047


              NET ATOMIC CHARGES AND DIPOLE CONTRIBUTIONS

  ATOM NO.   TYPE          CHARGE      No. of ELECS.   s-Pop       p-Pop       
    1          C          -0.435663        4.4357     1.05177     3.38390
    2          C          -0.250338        4.2503     1.05519     3.19515
    3          H           0.144229        0.8558     0.85577
    4          H           0.139583        0.8604     0.86042
    5          H           0.142116        0.8579     0.85788
    6          C          -0.253653        4.2537     1.05678     3.19688
    7          H           0.136186        0.8638     0.86381
    8          H           0.135948        0.8641     0.86405
    9          C          -0.346826        4.3468     1.06755     3.27928
   10          H           0.146729        0.8533     0.85327
   11          H           0.152588        0.8474     0.84741
   12          C           0.598653        3.4013     1.12372     2.27763
   13          H           0.180451        0.8195     0.81955
   14          H           0.178379        0.8216     0.82162
   15          O          -0.407031        6.4070     1.86695     4.54008
   16          O          -0.515842        6.5158     1.87682     4.63902
   17          C          -0.172168        4.1722     1.08571     3.08646
   18          H           0.141001        0.8590     0.85900
   19          H           0.140879        0.8591     0.85912
   20          H           0.144780        0.8552     0.85522
 DIPOLE           X         Y         Z       TOTAL
 POINT-CHG.    -1.515    -1.761     0.436     2.363
 HYBRID         0.142     0.176     0.021     0.227
 SUM           -1.373    -1.584     0.457     2.146


          ATOMIC ORBITAL ELECTRON POPULATIONS

     Atom    s        px        py        pz   
    1  C   1.05177   1.15227   1.14406   1.08757
    2  C   1.05519   1.00472   1.12828   1.06214
    3  H   0.85577
    4  H   0.86042
    5  H   0.85788
    6  C   1.05678   0.99822   1.02146   1.17720
    7  H   0.86381
    8  H   0.86405
    9  C   1.06755   0.99222   1.09710   1.18997
   10  H   0.85327
   11  H   0.84741
   12  C   1.12372   0.86573   0.74595   0.66595
   13  H   0.81955
   14  H   0.82162
   15  O   1.86695   1.31388   1.40584   1.82036
   16  O   1.87682   1.60244   1.51810   1.51848
   17  C   1.08571   0.80475   1.12580   1.15591
   18  H   0.85900
   19  H   0.85912
   20  H   0.85522

 **********************
 *                    *
 * JOB ENDED NORMALLY *
 *                    *
 **********************



 TOTAL JOB TIME:             2.10 SECONDS

 == MOPAC DONE ==
