 *******************************************************************************
 ** Site#: 30659        For non-commercial use only    Version 20.225L 64BITS **
 *******************************************************************************
 ** Cite this program as: MOPAC2016, Version: 20.225L, James J. P. Stewart,   **
 ** Stewart Computational Chemistry, web: HTTP://OpenMOPAC.net. Days left: 192**
 *******************************************************************************
 **                                                                           **
 **                                MOPAC2016                                  **
 **                                                                           **
 *******************************************************************************

                              PM7 CALCULATION RESULTS

 *******************************************************************************
 *  CALCULATION DONE:                                Tue Feb  2 18:51:40 2021  *
 *  PM7        - The PM7 Hamiltonian to be used
 *  SINGLET    - SPIN STATE DEFINED AS A SINGLET
 *
 *
 *
 *                 CHARGE ON SYSTEM = 0
 *
 *
 *
 *  T=         - A TIME OF 172800.0 SECONDS REQUESTED
 *  DUMP=N     - RESTART FILE WRITTEN EVERY 7200.0 SECONDS REQUESTED
 *  GNORM      - EXIT WHEN GRADIENT NORM DROPS BELOW 0.000
 *  AUX        - OUTPUT AUXILIARY INFORMATION
 *  LARGE      - EXPANDED OUTPUT TO BE PRINTED
 *******************************************************************************
 AUX LARGE CHARGE=0 SINGLET  PM7 GNORM=(0.0)
 K7

   ATOM   CHEMICAL          X               Y               Z
  NUMBER   SYMBOL      (ANGSTROMS)     (ANGSTROMS)     (ANGSTROMS)
 
     1       C         -3.27461000  *  -0.40854000  *   1.50228000  *
     2       C         -2.48994000  *   0.89784000  *   1.42583000  *
     3       H         -4.33946000  *  -0.23585000  *   1.23707000  *
     4       H         -3.22676000  *  -0.81175000  *   2.53578000  *
     5       H         -2.84224000  *  -1.15944000  *   0.80708000  *
     6       C         -2.53590000  *   1.48829000  *   0.00846000  *
     7       H         -1.43759000  *   0.69553000  *   1.72045000  *
     8       H         -2.92874000  *   1.62285000  *   2.14548000  *
     9       C         -1.77988000  *   2.82040000  *  -0.09414000  *
    10       H         -3.59696000  *   1.67121000  *  -0.26985000  *
    11       H         -2.10740000  *   0.76230000  *  -0.71739000  *
    12       C         -0.31309000  *   2.66123000  *   0.19214000  *
    13       H         -2.23218000  *   3.55380000  *   0.60963000  *
    14       H         -1.89142000  *   3.21867000  *  -1.12521000  *
    15       O          0.43254000  *   1.83414000  *  -0.58412000  *
    16       O          0.19461000  *   3.27967000  *   1.11771000  *
    17       C          1.78082000  *   1.61539000  *  -0.39892000  *
    18       H          2.34170000  *   2.56851000  *  -0.50569000  *
    19       H          2.14210000  *   0.90003000  *  -1.16590000  *
    20       H          1.96325000  *   1.18285000  *   0.60813000  *
 


          CARTESIAN COORDINATES 

    NO.       ATOM           X           Y           Z

     1         C         -3.2746     -0.4085      1.5023
     2         C         -2.4899      0.8978      1.4258
     3         H         -4.3395     -0.2359      1.2371
     4         H         -3.2268     -0.8118      2.5358
     5         H         -2.8422     -1.1594      0.8071
     6         C         -2.5359      1.4883      0.0085
     7         H         -1.4376      0.6955      1.7205
     8         H         -2.9287      1.6229      2.1455
     9         C         -1.7799      2.8204     -0.0941
    10         H         -3.5970      1.6712     -0.2699
    11         H         -2.1074      0.7623     -0.7174
    12         C         -0.3131      2.6612      0.1921
    13         H         -2.2322      3.5538      0.6096
    14         H         -1.8914      3.2187     -1.1252
    15         O          0.4325      1.8341     -0.5841
    16         O          0.1946      3.2797      1.1177
    17         C          1.7808      1.6154     -0.3989
    18         H          2.3417      2.5685     -0.5057
    19         H          2.1421      0.9000     -1.1659
    20         H          1.9632      1.1828      0.6081

 General Reference for PM7:
 "Optimization of Parameters for Semiempirical Methods VI: More Modifications to the 
 NDDO Approximations and Re-optimization of Parameters", J. J. P. Stewart, J. Mol. Mod., 1:32, 19 (2013)
 https://link.springer.com/article/10.1007/s00894-012-1667-x

           Empirical Formula: C6 H12 O2  =    20 atoms



      MOLECULAR POINT GROUP   :   C1  


 SINGLET STATE CALCULATION


      RHF CALCULATION, NO. OF DOUBLY OCCUPIED LEVELS = 24


          Geometry optimization using EF

  GNORM HAS BEEN SET TOO LOW, RESET TO 0.01

  SPECIFY LET AS KEYWORD TO ALLOW GNORM LESS THAN 0.01

          DIAGONAL MATRIX USED AS START HESSIAN

 CYCLE:     1 TIME:   0.016 TIME LEFT:  2.00D  GRAD.:   109.670 HEAT: -104.6243
 CYCLE:     2 TIME:   0.031 TIME LEFT:  2.00D  GRAD.:    74.818 HEAT: -107.0558
 CYCLE:     3 TIME:   0.008 TIME LEFT:  2.00D  GRAD.:    78.808 HEAT: -107.3218
 CYCLE:     4 TIME:   0.008 TIME LEFT:  2.00D  GRAD.:    47.319 HEAT: -108.4940
 CYCLE:     5 TIME:   0.016 TIME LEFT:  2.00D  GRAD.:    38.671 HEAT: -109.2954
 CYCLE:     6 TIME:   0.000 TIME LEFT:  2.00D  GRAD.:    34.946 HEAT: -109.5662
 CYCLE:     7 TIME:   0.008 TIME LEFT:  2.00D  GRAD.:    49.609 HEAT: -109.6215
 CYCLE:     8 TIME:   0.008 TIME LEFT:  2.00D  GRAD.:    46.376 HEAT: -109.7780
 CYCLE:     9 TIME:   0.000 TIME LEFT:  2.00D  GRAD.:    45.207 HEAT: -109.8268
 CYCLE:    10 TIME:   0.008 TIME LEFT:  2.00D  GRAD.:    35.419 HEAT: -110.1049
 CYCLE:    11 TIME:   0.016 TIME LEFT:  2.00D  GRAD.:    18.098 HEAT: -110.5045
 CYCLE:    12 TIME:   0.016 TIME LEFT:  2.00D  GRAD.:    10.664 HEAT: -110.6078
 CYCLE:    13 TIME:   0.008 TIME LEFT:  2.00D  GRAD.:    10.705 HEAT: -110.6564
 CYCLE:    14 TIME:   0.008 TIME LEFT:  2.00D  GRAD.:    10.866 HEAT: -110.7029
 CYCLE:    15 TIME:   0.008 TIME LEFT:  2.00D  GRAD.:    13.137 HEAT: -110.7273
 CYCLE:    16 TIME:   0.008 TIME LEFT:  2.00D  GRAD.:     9.020 HEAT: -110.8041
 CYCLE:    17 TIME:   0.008 TIME LEFT:  2.00D  GRAD.:     7.417 HEAT: -110.8468
 CYCLE:    18 TIME:   0.008 TIME LEFT:  2.00D  GRAD.:     5.322 HEAT: -110.8811
 CYCLE:    19 TIME:   0.008 TIME LEFT:  2.00D  GRAD.:     4.982 HEAT: -110.9075
 CYCLE:    20 TIME:   0.008 TIME LEFT:  2.00D  GRAD.:     5.225 HEAT: -110.9247
 CYCLE:    21 TIME:   0.008 TIME LEFT:  2.00D  GRAD.:     4.672 HEAT: -110.9474
 CYCLE:    22 TIME:   0.008 TIME LEFT:  2.00D  GRAD.:     4.407 HEAT: -110.9660
 CYCLE:    23 TIME:   0.008 TIME LEFT:  2.00D  GRAD.:     3.929 HEAT: -110.9820
 CYCLE:    24 TIME:   0.008 TIME LEFT:  2.00D  GRAD.:     2.602 HEAT: -110.9971
 CYCLE:    25 TIME:   0.031 TIME LEFT:  2.00D  GRAD.:     2.821 HEAT: -111.0121
 CYCLE:    26 TIME:   0.023 TIME LEFT:  2.00D  GRAD.:     3.817 HEAT: -111.0254
 CYCLE:    27 TIME:   0.008 TIME LEFT:  2.00D  GRAD.:     2.830 HEAT: -111.0401
 CYCLE:    28 TIME:   0.008 TIME LEFT:  2.00D  GRAD.:     2.350 HEAT: -111.0519
 CYCLE:    29 TIME:   0.000 TIME LEFT:  2.00D  GRAD.:     1.686 HEAT: -111.0597
 CYCLE:    30 TIME:   0.008 TIME LEFT:  2.00D  GRAD.:     1.473 HEAT: -111.0646
 CYCLE:    31 TIME:   0.008 TIME LEFT:  2.00D  GRAD.:     1.485 HEAT: -111.0698
 CYCLE:    32 TIME:   0.000 TIME LEFT:  2.00D  GRAD.:     1.536 HEAT: -111.0741
 CYCLE:    33 TIME:   0.008 TIME LEFT:  2.00D  GRAD.:     1.491 HEAT: -111.0786
 CYCLE:    34 TIME:   0.008 TIME LEFT:  2.00D  GRAD.:     1.464 HEAT: -111.0833
 CYCLE:    35 TIME:   0.008 TIME LEFT:  2.00D  GRAD.:     1.460 HEAT: -111.0886
 CYCLE:    36 TIME:   0.008 TIME LEFT:  2.00D  GRAD.:     1.372 HEAT: -111.0938
 CYCLE:    37 TIME:   0.008 TIME LEFT:  2.00D  GRAD.:     1.233 HEAT: -111.0979
 CYCLE:    38 TIME:   0.008 TIME LEFT:  2.00D  GRAD.:     1.067 HEAT: -111.1010
 CYCLE:    39 TIME:   0.008 TIME LEFT:  2.00D  GRAD.:     0.951 HEAT: -111.1035
 CYCLE:    40 TIME:   0.008 TIME LEFT:  2.00D  GRAD.:     0.946 HEAT: -111.1062
 CYCLE:    41 TIME:   0.008 TIME LEFT:  2.00D  GRAD.:     0.855 HEAT: -111.1085
 CYCLE:    42 TIME:   0.008 TIME LEFT:  2.00D  GRAD.:     0.860 HEAT: -111.1106
 CYCLE:    43 TIME:   0.008 TIME LEFT:  2.00D  GRAD.:     0.750 HEAT: -111.1118
 CYCLE:    44 TIME:   0.008 TIME LEFT:  2.00D  GRAD.:     0.706 HEAT: -111.1132
 CYCLE:    45 TIME:   0.008 TIME LEFT:  2.00D  GRAD.:     0.731 HEAT: -111.1143
 CYCLE:    46 TIME:   0.008 TIME LEFT:  2.00D  GRAD.:     0.810 HEAT: -111.1159
 CYCLE:    47 TIME:   0.008 TIME LEFT:  2.00D  GRAD.:     0.782 HEAT: -111.1172
 CYCLE:    48 TIME:   0.008 TIME LEFT:  2.00D  GRAD.:     1.038 HEAT: -111.1193
 CYCLE:    49 TIME:   0.008 TIME LEFT:  2.00D  GRAD.:     0.943 HEAT: -111.1209
 CYCLE:    50 TIME:   0.008 TIME LEFT:  2.00D  GRAD.:     1.561 HEAT: -111.1265
 CYCLE:    51 TIME:   0.008 TIME LEFT:  2.00D  GRAD.:     1.186 HEAT: -111.1297
 CYCLE:    52 TIME:   0.008 TIME LEFT:  2.00D  GRAD.:     3.466 HEAT: -111.1327
 CYCLE:    53 TIME:   0.008 TIME LEFT:  2.00D  GRAD.:     1.272 HEAT: -111.1409
 CYCLE:    54 TIME:   0.008 TIME LEFT:  2.00D  GRAD.:     1.170 HEAT: -111.1464
 CYCLE:    55 TIME:   0.008 TIME LEFT:  2.00D  GRAD.:     2.050 HEAT: -111.1628
 CYCLE:    56 TIME:   0.008 TIME LEFT:  2.00D  GRAD.:     3.079 HEAT: -111.1785
 CYCLE:    57 TIME:   0.008 TIME LEFT:  2.00D  GRAD.:     2.199 HEAT: -111.1924
 CYCLE:    58 TIME:   0.016 TIME LEFT:  2.00D  GRAD.:     5.663 HEAT: -111.1991
 CYCLE:    59 TIME:   0.008 TIME LEFT:  2.00D  GRAD.:     2.894 HEAT: -111.2084
 CYCLE:    60 TIME:   0.008 TIME LEFT:  2.00D  GRAD.:     1.369 HEAT: -111.2169
 CYCLE:    61 TIME:   0.008 TIME LEFT:  2.00D  GRAD.:     2.406 HEAT: -111.2250
 CYCLE:    62 TIME:   0.008 TIME LEFT:  2.00D  GRAD.:     1.810 HEAT: -111.2310
 CYCLE:    63 TIME:   0.016 TIME LEFT:  2.00D  GRAD.:     1.516 HEAT: -111.2411
 CYCLE:    64 TIME:   0.000 TIME LEFT:  2.00D  GRAD.:     1.144 HEAT: -111.2446
 CYCLE:    65 TIME:   0.008 TIME LEFT:  2.00D  GRAD.:     3.184 HEAT: -111.2459
 CYCLE:    66 TIME:   0.008 TIME LEFT:  2.00D  GRAD.:     1.911 HEAT: -111.2522
 CYCLE:    67 TIME:   0.000 TIME LEFT:  2.00D  GRAD.:     0.806 HEAT: -111.2554
 CYCLE:    68 TIME:   0.008 TIME LEFT:  2.00D  GRAD.:     1.410 HEAT: -111.2572
 CYCLE:    69 TIME:   0.008 TIME LEFT:  2.00D  GRAD.:     0.959 HEAT: -111.2589
 CYCLE:    70 TIME:   0.008 TIME LEFT:  2.00D  GRAD.:     2.474 HEAT: -111.2580
 CYCLE:    71 TIME:   0.008 TIME LEFT:  2.00D  GRAD.:     0.741 HEAT: -111.2618
 CYCLE:    72 TIME:   0.008 TIME LEFT:  2.00D  GRAD.:     0.916 HEAT: -111.2577
 CYCLE:    73 TIME:   0.008 TIME LEFT:  2.00D  GRAD.:     0.582 HEAT: -111.2620
 CYCLE:    74 TIME:   0.008 TIME LEFT:  2.00D  GRAD.:     0.820 HEAT: -111.2629
 CYCLE:    75 TIME:   0.008 TIME LEFT:  2.00D  GRAD.:     0.656 HEAT: -111.2635
 CYCLE:    76 TIME:   0.008 TIME LEFT:  2.00D  GRAD.:     3.416 HEAT: -111.2609
 CYCLE:    77 TIME:   0.008 TIME LEFT:  2.00D  GRAD.:     2.141 HEAT: -111.2683
 CYCLE:    78 TIME:   0.008 TIME LEFT:  2.00D  GRAD.:     1.654 HEAT: -111.2699
 CYCLE:    79 TIME:   0.008 TIME LEFT:  2.00D  GRAD.:     3.969 HEAT: -111.2743
 CYCLE:    80 TIME:   0.016 TIME LEFT:  2.00D  GRAD.:     1.537 HEAT: -111.2787
 CYCLE:    81 TIME:   0.008 TIME LEFT:  2.00D  GRAD.:     2.416 HEAT: -111.2760
 CYCLE:    82 TIME:   0.008 TIME LEFT:  2.00D  GRAD.:     1.375 HEAT: -111.2808
 CYCLE:    83 TIME:   0.062 TIME LEFT:  2.00D  GRAD.:     5.969 HEAT: -111.2739
 CYCLE:    84 TIME:   0.023 TIME LEFT:  2.00D  GRAD.:     1.816 HEAT: -111.2852
 CYCLE:    85 TIME:   0.008 TIME LEFT:  2.00D  GRAD.:     2.532 HEAT: -111.2874
 CYCLE:    86 TIME:   0.008 TIME LEFT:  2.00D  GRAD.:     1.099 HEAT: -111.2908
 CYCLE:    87 TIME:   0.008 TIME LEFT:  2.00D  GRAD.:     4.929 HEAT: -111.2879
 CYCLE:    88 TIME:   0.016 TIME LEFT:  2.00D  GRAD.:     3.092 HEAT: -111.2837
 CYCLE:    89 TIME:   0.008 TIME LEFT:  2.00D  GRAD.:     2.744 HEAT: -111.2910
 CYCLE:    90 TIME:   0.008 TIME LEFT:  2.00D  GRAD.:     1.525 HEAT: -111.2939
 CYCLE:    91 TIME:   0.000 TIME LEFT:  2.00D  GRAD.:     1.411 HEAT: -111.2952
 CYCLE:    92 TIME:   0.008 TIME LEFT:  2.00D  GRAD.:     0.684 HEAT: -111.2958
 CYCLE:    93 TIME:   0.008 TIME LEFT:  2.00D  GRAD.:     0.479 HEAT: -111.2966
 CYCLE:    94 TIME:   0.008 TIME LEFT:  2.00D  GRAD.:     0.381 HEAT: -111.2977
 CYCLE:    95 TIME:   0.000 TIME LEFT:  2.00D  GRAD.:     0.432 HEAT: -111.2984
 CYCLE:    96 TIME:   0.008 TIME LEFT:  2.00D  GRAD.:     1.179 HEAT: -111.2989
 CYCLE:    97 TIME:   0.008 TIME LEFT:  2.00D  GRAD.:     0.525 HEAT: -111.2993
 CYCLE:    98 TIME:   0.008 TIME LEFT:  2.00D  GRAD.:     1.629 HEAT: -111.2956
 CYCLE:    99 TIME:   0.008 TIME LEFT:  2.00D  GRAD.:     0.419 HEAT: -111.2994
 CYCLE:   100 TIME:   0.000 TIME LEFT:  2.00D  GRAD.:     0.334 HEAT: -111.2998
 CYCLE:   101 TIME:   0.008 TIME LEFT:  2.00D  GRAD.:     0.464 HEAT: -111.3000
 CYCLE:   102 TIME:   0.008 TIME LEFT:  2.00D  GRAD.:     0.285 HEAT: -111.3003
 CYCLE:   103 TIME:   0.000 TIME LEFT:  2.00D  GRAD.:     0.687 HEAT: -111.3006
 CYCLE:   104 TIME:   0.008 TIME LEFT:  2.00D  GRAD.:     0.483 HEAT: -111.3008
 CYCLE:   105 TIME:   0.016 TIME LEFT:  2.00D  GRAD.:     2.343 HEAT: -111.2997
 CYCLE:   106 TIME:   0.008 TIME LEFT:  2.00D  GRAD.:     0.286 HEAT: -111.3016
 CYCLE:   107 TIME:   0.008 TIME LEFT:  2.00D  GRAD.:     0.852 HEAT: -111.3014
 CYCLE:   108 TIME:   0.008 TIME LEFT:  2.00D  GRAD.:     0.654 HEAT: -111.3018
 CYCLE:   109 TIME:   0.008 TIME LEFT:  2.00D  GRAD.:     0.491 HEAT: -111.3028
 CYCLE:   110 TIME:   0.008 TIME LEFT:  2.00D  GRAD.:     0.411 HEAT: -111.3031
 CYCLE:   111 TIME:   0.000 TIME LEFT:  2.00D  GRAD.:     2.724 HEAT: -111.3021
 CYCLE:   112 TIME:   0.008 TIME LEFT:  2.00D  GRAD.:     1.047 HEAT: -111.3051
 CYCLE:   113 TIME:   0.008 TIME LEFT:  2.00D  GRAD.:     1.695 HEAT: -111.3016
 CYCLE:   114 TIME:   0.008 TIME LEFT:  2.00D  GRAD.:     0.438 HEAT: -111.3055
 CYCLE:   115 TIME:   0.008 TIME LEFT:  2.00D  GRAD.:     0.662 HEAT: -111.3066
 CYCLE:   116 TIME:   0.008 TIME LEFT:  2.00D  GRAD.:     0.808 HEAT: -111.3076
 CYCLE:   117 TIME:   0.008 TIME LEFT:  2.00D  GRAD.:     0.876 HEAT: -111.3094
 CYCLE:   118 TIME:   0.008 TIME LEFT:  2.00D  GRAD.:     0.916 HEAT: -111.3103
 CYCLE:   119 TIME:   0.008 TIME LEFT:  2.00D  GRAD.:     1.375 HEAT: -111.3106
 CYCLE:   120 TIME:   0.008 TIME LEFT:  2.00D  GRAD.:     1.242 HEAT: -111.3109
 CYCLE:   121 TIME:   0.000 TIME LEFT:  2.00D  GRAD.:     1.019 HEAT: -111.3116
 CYCLE:   122 TIME:   0.008 TIME LEFT:  2.00D  GRAD.:     0.956 HEAT: -111.3122
 CYCLE:   123 TIME:   0.008 TIME LEFT:  2.00D  GRAD.:     2.541 HEAT: -111.3106
 CYCLE:   124 TIME:   0.008 TIME LEFT:  2.00D  GRAD.:     0.859 HEAT: -111.3149
 CYCLE:   125 TIME:   0.000 TIME LEFT:  2.00D  GRAD.:     0.822 HEAT: -111.3137
 CYCLE:   126 TIME:   0.008 TIME LEFT:  2.00D  GRAD.:     0.412 HEAT: -111.3156
 CYCLE:   127 TIME:   0.008 TIME LEFT:  2.00D  GRAD.:     0.730 HEAT: -111.3164
 CYCLE:   128 TIME:   0.000 TIME LEFT:  2.00D  GRAD.:     0.682 HEAT: -111.3171
 CYCLE:   129 TIME:   0.008 TIME LEFT:  2.00D  GRAD.:     0.570 HEAT: -111.3180
 CYCLE:   130 TIME:   0.008 TIME LEFT:  2.00D  GRAD.:     0.686 HEAT: -111.3183
 CYCLE:   131 TIME:   0.008 TIME LEFT:  2.00D  GRAD.:     0.456 HEAT: -111.3187
 CYCLE:   132 TIME:   0.000 TIME LEFT:  2.00D  GRAD.:     0.328 HEAT: -111.3188
 CYCLE:   133 TIME:   0.008 TIME LEFT:  2.00D  GRAD.:     1.034 HEAT: -111.3183
 CYCLE:   134 TIME:   0.008 TIME LEFT:  2.00D  GRAD.:     0.401 HEAT: -111.3192
 CYCLE:   135 TIME:   0.008 TIME LEFT:  2.00D  GRAD.:     0.416 HEAT: -111.3194
 CYCLE:   136 TIME:   0.008 TIME LEFT:  2.00D  GRAD.:     0.767 HEAT: -111.3202
 CYCLE:   137 TIME:   0.000 TIME LEFT:  2.00D  GRAD.:     0.861 HEAT: -111.3214
 CYCLE:   138 TIME:   0.008 TIME LEFT:  2.00D  GRAD.:     0.697 HEAT: -111.3227
 CYCLE:   139 TIME:   0.008 TIME LEFT:  2.00D  GRAD.:     0.960 HEAT: -111.3235
 CYCLE:   140 TIME:   0.008 TIME LEFT:  2.00D  GRAD.:     1.239 HEAT: -111.3246
 CYCLE:   141 TIME:   0.000 TIME LEFT:  2.00D  GRAD.:     1.277 HEAT: -111.3262
 CYCLE:   142 TIME:   0.008 TIME LEFT:  2.00D  GRAD.:     0.618 HEAT: -111.3269
 CYCLE:   143 TIME:   0.008 TIME LEFT:  2.00D  GRAD.:     0.408 HEAT: -111.3276
 CYCLE:   144 TIME:   0.000 TIME LEFT:  2.00D  GRAD.:     0.435 HEAT: -111.3278
 CYCLE:   145 TIME:   0.008 TIME LEFT:  2.00D  GRAD.:     0.220 HEAT: -111.3280
 CYCLE:   146 TIME:   0.008 TIME LEFT:  2.00D  GRAD.:     1.726 HEAT: -111.3258
 CYCLE:   147 TIME:   0.008 TIME LEFT:  2.00D  GRAD.:     0.258 HEAT: -111.3282
 CYCLE:   148 TIME:   0.000 TIME LEFT:  2.00D  GRAD.:     0.223 HEAT: -111.3283
 CYCLE:   149 TIME:   0.008 TIME LEFT:  2.00D  GRAD.:     0.170 HEAT: -111.3283
 CYCLE:   150 TIME:   0.008 TIME LEFT:  2.00D  GRAD.:     0.125 HEAT: -111.3284
 CYCLE:   151 TIME:   0.000 TIME LEFT:  2.00D  GRAD.:     0.124 HEAT: -111.3285
 CYCLE:   152 TIME:   0.008 TIME LEFT:  2.00D  GRAD.:     0.068 HEAT: -111.3285
 CYCLE:   153 TIME:   0.008 TIME LEFT:  2.00D  GRAD.:     0.184 HEAT: -111.3284
 CYCLE:   154 TIME:   0.008 TIME LEFT:  2.00D  GRAD.:     0.112 HEAT: -111.3285
 CYCLE:   155 TIME:   0.000 TIME LEFT:  2.00D  GRAD.:     0.285 HEAT: -111.3285
 CYCLE:   156 TIME:   0.008 TIME LEFT:  2.00D  GRAD.:     0.147 HEAT: -111.3286
 CYCLE:   157 TIME:   0.008 TIME LEFT:  2.00D  GRAD.:     0.097 HEAT: -111.3286
 CYCLE:   158 TIME:   0.000 TIME LEFT:  2.00D  GRAD.:     0.235 HEAT: -111.3285
 CYCLE:   159 TIME:   0.008 TIME LEFT:  2.00D  GRAD.:     0.134 HEAT: -111.3286
 CYCLE:   160 TIME:   0.008 TIME LEFT:  2.00D  GRAD.:     0.183 HEAT: -111.3287
 CYCLE:   161 TIME:   0.000 TIME LEFT:  2.00D  GRAD.:     0.069 HEAT: -111.3287
 CYCLE:   162 TIME:   0.008 TIME LEFT:  2.00D  GRAD.:     0.161 HEAT: -111.3286
 CYCLE:   163 TIME:   0.008 TIME LEFT:  2.00D  GRAD.:     0.100 HEAT: -111.3287
 CYCLE:   164 TIME:   0.008 TIME LEFT:  2.00D  GRAD.:     0.168 HEAT: -111.3286
 CYCLE:   165 TIME:   0.000 TIME LEFT:  2.00D  GRAD.:     0.052 HEAT: -111.3288
 CYCLE:   166 TIME:   0.008 TIME LEFT:  2.00D  GRAD.:     0.083 HEAT: -111.3287
 CYCLE:   167 TIME:   0.008 TIME LEFT:  2.00D  GRAD.:     0.083 HEAT: -111.3287
 CYCLE:   168 TIME:   0.000 TIME LEFT:  2.00D  GRAD.:     0.139 HEAT: -111.3288
 CYCLE:   169 TIME:   0.008 TIME LEFT:  2.00D  GRAD.:     0.421 HEAT: -111.3287
 CYCLE:   170 TIME:   0.008 TIME LEFT:  2.00D  GRAD.:     1.772 HEAT: -111.3248
 CYCLE:   171 TIME:   0.008 TIME LEFT:  2.00D  GRAD.:     0.358 HEAT: -111.3287
 CYCLE:   172 TIME:   0.000 TIME LEFT:  2.00D  GRAD.:     0.187 HEAT: -111.3289
 CYCLE:   173 TIME:   0.016 TIME LEFT:  2.00D  GRAD.:     2.516 HEAT: -111.3239
 CYCLE:   174 TIME:   0.008 TIME LEFT:  2.00D  GRAD.:     0.254 HEAT: -111.3290
 CYCLE:   175 TIME:   0.000 TIME LEFT:  2.00D  GRAD.:     0.614 HEAT: -111.3282
 CYCLE:   176 TIME:   0.008 TIME LEFT:  2.00D  GRAD.:     0.128 HEAT: -111.3289
 CYCLE:   177 TIME:   0.008 TIME LEFT:  2.00D  GRAD.:     0.517 HEAT: -111.3288
 CYCLE:   178 TIME:   0.000 TIME LEFT:  2.00D  GRAD.:     0.210 HEAT: -111.3290
 CYCLE:   179 TIME:   0.008 TIME LEFT:  2.00D  GRAD.:     0.095 HEAT: -111.3290
 CYCLE:   180 TIME:   0.008 TIME LEFT:  2.00D  GRAD.:     0.091 HEAT: -111.3290
 CYCLE:   181 TIME:   0.008 TIME LEFT:  2.00D  GRAD.:     0.111 HEAT: -111.3290
 CYCLE:   182 TIME:   0.000 TIME LEFT:  2.00D  GRAD.:     0.211 HEAT: -111.3289
 CYCLE:   183 TIME:   0.008 TIME LEFT:  2.00D  GRAD.:     0.070 HEAT: -111.3290
 CYCLE:   184 TIME:   0.008 TIME LEFT:  2.00D  GRAD.:     0.234 HEAT: -111.3290
 CYCLE:   185 TIME:   0.000 TIME LEFT:  2.00D  GRAD.:     0.063 HEAT: -111.3291
 CYCLE:   186 TIME:   0.008 TIME LEFT:  2.00D  GRAD.:     0.095 HEAT: -111.3290
 CYCLE:   187 TIME:   0.008 TIME LEFT:  2.00D  GRAD.:     0.102 HEAT: -111.3291
 CYCLE:   188 TIME:   0.008 TIME LEFT:  2.00D  GRAD.:     0.054 HEAT: -111.3291
 CYCLE:   189 TIME:   0.000 TIME LEFT:  2.00D  GRAD.:     0.041 HEAT: -111.3291
 CYCLE:   190 TIME:   0.008 TIME LEFT:  2.00D  GRAD.:     0.105 HEAT: -111.3291
 CYCLE:   191 TIME:   0.008 TIME LEFT:  2.00D  GRAD.:     0.037 HEAT: -111.3291
 CYCLE:   192 TIME:   0.000 TIME LEFT:  2.00D  GRAD.:     1.051 HEAT: -111.3265
 CYCLE:   193 TIME:   0.008 TIME LEFT:  2.00D  GRAD.:     0.081 HEAT: -111.3291
 CYCLE:   194 TIME:   0.008 TIME LEFT:  2.00D  GRAD.:     0.083 HEAT: -111.3291
 CYCLE:   195 TIME:   0.008 TIME LEFT:  2.00D  GRAD.:     0.082 HEAT: -111.3291
 CYCLE:   196 TIME:   0.000 TIME LEFT:  2.00D  GRAD.:     0.131 HEAT: -111.3289
 CYCLE:   197 TIME:   0.008 TIME LEFT:  2.00D  GRAD.:     0.056 HEAT: -111.3291
 CYCLE:   198 TIME:   0.008 TIME LEFT:  2.00D  GRAD.:     0.340 HEAT: -111.3291
 CYCLE:   199 TIME:   0.000 TIME LEFT:  2.00D  GRAD.:     0.197 HEAT: -111.3290
 CYCLE:   200 TIME:   0.008 TIME LEFT:  2.00D  GRAD.:     0.019 HEAT: -111.3291


 HEAT OF FORMATION IS ESSENTIALLY STATIONARY

 -------------------------------------------------------------------------------
 AUX LARGE CHARGE=0 SINGLET  PM7 GNORM=(0.0)
 K7



     GEOMETRY OPTIMISED USING EIGENVECTOR FOLLOWING (EF).     
     SCF FIELD WAS ACHIEVED                                   


                              PM7 CALCULATION
                                                       MOPAC2016 (Version: 20.225L)
                                                       Tue Feb  2 18:51:41 2021
                                                       No. of days remaining = 192




          FINAL HEAT OF FORMATION =       -111.32913 KCAL/MOL =    -465.80108 KJ/MOL


          TOTAL ENERGY            =      -1490.34238 EV
          ELECTRONIC ENERGY       =      -6822.15973 EV  POINT GROUP:     C1  
          CORE-CORE REPULSION     =       5331.81735 EV
          COSMO AREA              =        168.40 SQUARE ANGSTROMS
          COSMO VOLUME            =        160.71 CUBIC ANGSTROMS

          GRADIENT NORM           =          0.01919 = 0.00429 PER ATOM
          IONIZATION POTENTIAL    =         10.711549 EV
          HOMO LUMO ENERGIES (EV) =        -10.712  1.108
          NO. OF FILLED LEVELS    =         24
          MOLECULAR WEIGHT        =        116.1596

          MOLECULAR DIMENSIONS (Angstroms)

            Atom       Atom       Distance
            H    19    H     4     7.50171
            H    14    H    20     4.15503
            H     5    O    16     3.43781


          SCF CALCULATIONS        =        219
 
          WALL-CLOCK TIME         =          1.539 SECONDS
          COMPUTATION TIME        =         18.042 SECONDS




   ATOM   CHEMICAL          X               Y               Z
  NUMBER   SYMBOL      (ANGSTROMS)     (ANGSTROMS)     (ANGSTROMS)
 
     1       C         -3.35801573  *  -0.30142804  *   1.66493323  *
     2       C         -2.67946769  *   1.05637661  *   1.49384411  *
     3       H         -4.33549464  *  -0.32931801  *   1.17141043  *
     4       H         -3.51797016  *  -0.53177293  *   2.72474644  *
     5       H         -2.75048237  *  -1.11048439  *   1.24384441  *
     6       C         -2.46949085  *   1.37629727  *   0.00827333  *
     7       H         -1.70745762  *   1.06537543  *   2.02862924  *
     8       H         -3.28532335  *   1.84874130  *   1.97277204  *
     9       C         -1.69666033  *   2.68768979  *  -0.18415186  *
    10       H         -3.44968563  *   1.44745609  *  -0.50229065  *
    11       H         -1.93430557  *   0.54397172  *  -0.49027882  *
    12       C         -0.27355733  *   2.49947177  *   0.25008434  *
    13       H         -2.15817331  *   3.50509790  *   0.40938645  *
    14       H         -1.74464742  *   3.00757137  *  -1.24644333  *
    15       O          0.48257093  *   2.13506444  *  -0.81952880  *
    16       O          0.19175419  *   2.63174594  *   1.35160732  *
    17       C          1.85918741  *   1.88452987  *  -0.55866777  *
    18       H          2.33812718  *   2.78242481  *  -0.15352258  *
    19       H          2.25684418  *   1.63019231  *  -1.54761176  *
    20       H          1.96356959  *   1.04898062  *   0.14148419  *

                             CARTESIAN COORDINATES

   1    C       -3.358015732    -0.301428038     1.664933234
   2    C       -2.679467695     1.056376606     1.493844113
   3    H       -4.335494635    -0.329318005     1.171410425
   4    H       -3.517970157    -0.531772928     2.724746444
   5    H       -2.750482374    -1.110484387     1.243844414
   6    C       -2.469490848     1.376297274     0.008273328
   7    H       -1.707457618     1.065375428     2.028629236
   8    H       -3.285323351     1.848741305     1.972772042
   9    C       -1.696660325     2.687689791    -0.184151856
  10    H       -3.449685633     1.447456093    -0.502290648
  11    H       -1.934305569     0.543971722    -0.490278823
  12    C       -0.273557335     2.499471768     0.250084335
  13    H       -2.158173310     3.505097902     0.409386455
  14    H       -1.744647424     3.007571368    -1.246443326
  15    O        0.482570925     2.135064436    -0.819528804
  16    O        0.191754191     2.631745936     1.351607320
  17    C        1.859187414     1.884529872    -0.558667774
  18    H        2.338127182     2.782424806    -0.153522576
  19    H        2.256844184     1.630192311    -1.547611755
  20    H        1.963569594     1.048980616     0.141484188


           Empirical Formula: C6 H12 O2  =    20 atoms



      MOLECULAR POINT GROUP   :   C1  


                  EIGENVALUES  
 -31.38996 -29.91527 -29.13545 -26.66484 -24.64493 -22.47115 -20.53044 -19.81369
 -17.27433 -16.63698 -16.22430 -15.60293 -14.90136 -14.87327 -14.02411 -13.70291
 -13.27788 -12.80258 -12.67869 -12.28863 -11.81323 -11.52890 -11.16133 -10.71155
   1.10783   1.69882   3.33578   3.70555   4.14105   4.20151   4.54429   4.93464
   5.26127   5.38327   5.46541   5.58948   5.70961   5.82347   5.95278   6.09620
   6.11591   6.31912   6.66110   6.98651


              NET ATOMIC CHARGES AND DIPOLE CONTRIBUTIONS

  ATOM NO.   TYPE          CHARGE      No. of ELECS.   s-Pop       p-Pop       
    1          C          -0.437813        4.4378     1.05164     3.38618
    2          C          -0.256842        4.2568     1.05623     3.20062
    3          H           0.140787        0.8592     0.85921
    4          H           0.144126        0.8559     0.85587
    5          H           0.143019        0.8570     0.85698
    6          C          -0.252969        4.2530     1.05851     3.19446
    7          H           0.153500        0.8465     0.84650
    8          H           0.138651        0.8613     0.86135
    9          C          -0.353006        4.3530     1.06853     3.28448
   10          H           0.144987        0.8550     0.85501
   11          H           0.148314        0.8517     0.85169
   12          C           0.607493        3.3925     1.12387     2.26863
   13          H           0.177156        0.8228     0.82284
   14          H           0.173467        0.8265     0.82653
   15          O          -0.415844        6.4158     1.86694     4.54891
   16          O          -0.509327        6.5093     1.87611     4.63322
   17          C          -0.170959        4.1710     1.08534     3.08562
   18          H           0.140844        0.8592     0.85916
   19          H           0.145116        0.8549     0.85488
   20          H           0.139299        0.8607     0.86070
 DIPOLE           X         Y         Z       TOTAL
 POINT-CHG.    -0.819    -0.588    -1.658     1.940
 HYBRID         0.099     0.038     0.025     0.109
 SUM           -0.719    -0.551    -1.633     1.867


          ATOMIC ORBITAL ELECTRON POPULATIONS

     Atom    s        px        py        pz   
    1  C   1.05164   1.14598   1.06832   1.17188
    2  C   1.05623   1.14550   1.04155   1.01356
    3  H   0.85921
    4  H   0.85587
    5  H   0.85698
    6  C   1.05851   1.11736   1.02487   1.05223
    7  H   0.84650
    8  H   0.86135
    9  C   1.06853   1.00821   1.09878   1.17749
   10  H   0.85501
   11  H   0.85169
   12  C   1.12387   0.83835   0.66574   0.76454
   13  H   0.82284
   14  H   0.82653
   15  O   1.86694   1.29117   1.80542   1.45231
   16  O   1.87611   1.76079   1.53208   1.34035
   17  C   1.08534   0.79987   1.14231   1.14345
   18  H   0.85916
   19  H   0.85488
   20  H   0.86070

 **********************
 *                    *
 * JOB ENDED NORMALLY *
 *                    *
 **********************



 TOTAL JOB TIME:             1.54 SECONDS

 == MOPAC DONE ==
