4
	Energy:       2.8927567
N         -1.15240        0.94580        0.01840
H         -0.10930        0.95130       -0.00130
H         -1.49040        0.26620       -0.69730
H         -1.49040        1.89660       -0.24670
