 *******************************************************************************
 ** Site#: 30659        For non-commercial use only    Version 20.225L 64BITS **
 *******************************************************************************
 ** Cite this program as: MOPAC2016, Version: 20.225L, James J. P. Stewart,   **
 ** Stewart Computational Chemistry, web: HTTP://OpenMOPAC.net. Days left: 194**
 *******************************************************************************
 **                                                                           **
 **                                MOPAC2016                                  **
 **                                                                           **
 *******************************************************************************

                              PM6 CALCULATION RESULTS

 *******************************************************************************
 *  CALCULATION DONE:                                Sun Jan 31 12:25:01 2021  *
 *  PM6        - The PM6 Hamiltonian to be used
 *  SINGLET    - SPIN STATE DEFINED AS A SINGLET
 *
 *
 *
 *                 CHARGE ON SYSTEM = 0
 *
 *
 *
 *  T=         - A TIME OF 172800.0 SECONDS REQUESTED
 *  DUMP=N     - RESTART FILE WRITTEN EVERY 7200.0 SECONDS REQUESTED
 *  AUX        - OUTPUT AUXILIARY INFORMATION
 *  LARGE      - EXPANDED OUTPUT TO BE PRINTED
 *******************************************************************************
 AUX LARGE CHARGE=0 SINGLET  PM6
 Amoniak

   ATOM   CHEMICAL          X               Y               Z
  NUMBER   SYMBOL      (ANGSTROMS)     (ANGSTROMS)     (ANGSTROMS)
 
     1       N         -1.15239000  *   0.94582000  *   0.01844000  *
     2       H         -0.10928000  *   0.95129000  *  -0.00135000  *
     3       H         -1.49041000  *   0.26616000  *  -0.69731000  *
     4       H         -1.49042000  *   1.89657000  *  -0.24670000  *
 


          CARTESIAN COORDINATES 

    NO.       ATOM           X           Y           Z

     1         N         -1.1524      0.9458      0.0184
     2         H         -0.1093      0.9513     -0.0013
     3         H         -1.4904      0.2662     -0.6973
     4         H         -1.4904      1.8966     -0.2467

 General Reference for PM6:
 "Optimization of Parameters for Semiempirical Methods V: Modification of NDDO Approximations
 and Application to 70 Elements", J. J. P. Stewart, J. Mol. Mod., 13, 1173-1213 (2007)
 URL: https://link.springer.com/article/10.1007/s00894-007-0233-4

           Empirical Formula: H3 N  =     4 atoms



      MOLECULAR POINT GROUP   :   C3v 


 SINGLET STATE CALCULATION


      RHF CALCULATION, NO. OF DOUBLY OCCUPIED LEVELS = 4


          Geometry optimization using EF

          DIAGONAL MATRIX USED AS START HESSIAN

 CYCLE:     1 TIME:   0.004 TIME LEFT:  2.00D  GRAD.:    47.506 HEAT: -1.627335
 CYCLE:     2 TIME:   0.000 TIME LEFT:  2.00D  GRAD.:    18.172 HEAT: -2.922443
 CYCLE:     3 TIME:   0.000 TIME LEFT:  2.00D  GRAD.:    18.475 HEAT: -3.012574
 CYCLE:     4 TIME:   0.000 TIME LEFT:  2.00D  GRAD.:     7.435 HEAT: -3.117321
 CYCLE:     5 TIME:   0.000 TIME LEFT:  2.00D  GRAD.:     2.834 HEAT: -3.134911
 CYCLE:     6 TIME:   0.000 TIME LEFT:  2.00D  GRAD.:     0.934 HEAT: -3.140208

     GRADIENT =  0.93397 IS LESS THAN CUTOFF =  1.00000



 -------------------------------------------------------------------------------
 AUX LARGE CHARGE=0 SINGLET  PM6
 Amoniak



     GEOMETRY OPTIMISED USING EIGENVECTOR FOLLOWING (EF).     
     SCF FIELD WAS ACHIEVED                                   


                              PM6 CALCULATION
                                                       MOPAC2016 (Version: 20.225L)
                                                       Sun Jan 31 12:25:01 2021
                                                       No. of days remaining = 194




          FINAL HEAT OF FORMATION =         -3.14021 KCAL/MOL =     -13.13863 KJ/MOL


          TOTAL ENERGY            =       -220.50671 EV
          ELECTRONIC ENERGY       =       -409.16900 EV  POINT GROUP:     C3v 
          CORE-CORE REPULSION     =        188.66229 EV
          COSMO AREA              =         47.55 SQUARE ANGSTROMS
          COSMO VOLUME            =         29.87 CUBIC ANGSTROMS

          GRADIENT NORM           =          0.93397 = 0.46699 PER ATOM
          IONIZATION POTENTIAL    =         10.092624 EV
          HOMO LUMO ENERGIES (EV) =        -10.093  4.382
          NO. OF FILLED LEVELS    =          4
          MOLECULAR WEIGHT        =         17.0304

          MOLECULAR DIMENSIONS (Angstroms)

            Atom       Atom       Distance
            H     4    H     2     1.62718
            H     3    H     4     1.40657
            H     4    N     1     0.36116


          SCF CALCULATIONS        =          8
 
          WALL-CLOCK TIME         =          0.023 SECONDS
          COMPUTATION TIME        =          0.022 SECONDS




   ATOM   CHEMICAL          X               Y               Z
  NUMBER   SYMBOL      (ANGSTROMS)     (ANGSTROMS)     (ANGSTROMS)
 
     1       N         -1.15110699  *   0.94664848  *   0.01624376  *
     2       H         -0.14551333  *   0.95331477  *  -0.01027355  *
     3       H         -1.47447199  *   0.29643537  *  -0.67953757  *
     4       H         -1.47490758  *   1.86118140  *  -0.24736162  *

                             CARTESIAN COORDINATES

   1    N       -1.151106985     0.946648483     0.016243760
   2    H       -0.145513330     0.953314767    -0.010273549
   3    H       -1.474471989     0.296435367    -0.679537567
   4    H       -1.474907576     1.861181400    -0.247361618


           Empirical Formula: H3 N  =     4 atoms



      MOLECULAR POINT GROUP   :   C3v 


                  EIGENVALUES  
 -31.02701 -16.19974 -16.17781 -10.09262   4.38240   6.81444   6.82524


              NET ATOMIC CHARGES AND DIPOLE CONTRIBUTIONS

  ATOM NO.   TYPE          CHARGE      No. of ELECS.   s-Pop       p-Pop       
    1          N          -0.595731        5.5957     1.58309     4.01264
    2          H           0.198946        0.8011     0.80105
    3          H           0.198342        0.8017     0.80166
    4          H           0.198442        0.8016     0.80156
 DIPOLE           X         Y         Z       TOTAL
 POINT-CHG.     0.344     0.259    -0.939     1.033
 HYBRID         0.403     0.304    -1.102     1.212
 SUM            0.747     0.563    -2.042     2.246


          ATOMIC ORBITAL ELECTRON POPULATIONS

     Atom    s        px        py        pz   
    1  N   1.58309   1.22534   1.20154   1.58576
    2  H   0.80105
    3  H   0.80166
    4  H   0.80156

 **********************
 *                    *
 * JOB ENDED NORMALLY *
 *                    *
 **********************



 TOTAL JOB TIME:             0.03 SECONDS

 == MOPAC DONE ==
