 *******************************************************************************
 ** Site#: 30659        For non-commercial use only    Version 20.225L 64BITS **
 *******************************************************************************
 ** Cite this program as: MOPAC2016, Version: 20.225L, James J. P. Stewart,   **
 ** Stewart Computational Chemistry, web: HTTP://OpenMOPAC.net. Days left: 193**
 *******************************************************************************
 **                                                                           **
 **                                MOPAC2016                                  **
 **                                                                           **
 *******************************************************************************

                              PM6 CALCULATION RESULTS

 *******************************************************************************
 *  CALCULATION DONE:                                Mon Feb  1 20:47:56 2021  *
 *  PM6        - The PM6 Hamiltonian to be used
 *  SINGLET    - SPIN STATE DEFINED AS A SINGLET
 *
 *
 *
 *                 CHARGE ON SYSTEM = 0
 *
 *
 *
 *  T=         - A TIME OF 172800.0 SECONDS REQUESTED
 *  DUMP=N     - RESTART FILE WRITTEN EVERY 7200.0 SECONDS REQUESTED
 *  AUX        - OUTPUT AUXILIARY INFORMATION
 *  LARGE      - EXPANDED OUTPUT TO BE PRINTED
 *******************************************************************************
 AUX LARGE CHARGE=0 SINGLET  PM6
 C6

   ATOM   CHEMICAL          X               Y               Z
  NUMBER   SYMBOL      (ANGSTROMS)     (ANGSTROMS)     (ANGSTROMS)
 
     1       C         13.87487000  * -11.05183000  *  -1.56397000  *
     2       C         14.00787000  *  -9.56655000  *  -1.99841000  *
     3       C         15.21925000  * -11.69042000  *  -1.11972000  *
     4       C         16.36982000  * -11.06469000  *  -1.89901000  *
     5       C         16.48435000  *  -9.55631000  *  -1.54663000  *
     6       C         15.12151000  *  -8.89462000  *  -1.20409000  *
     7       H         13.17602000  * -11.16217000  *  -0.70662000  *
     8       H         13.43499000  * -11.59411000  *  -2.42887000  *
     9       H         14.30165000  *  -9.50442000  *  -3.07012000  *
    10       H         13.02594000  *  -9.05888000  *  -1.88862000  *
    11       H         15.16204000  * -12.79363000  *  -1.23643000  *
    12       H         15.41064000  * -11.47451000  *  -0.04479000  *
    13       H         16.12650000  * -11.18995000  *  -2.97782000  *
    14       H         17.34482000  * -11.56370000  *  -1.71374000  *
    15       H         16.96503000  *  -9.06507000  *  -2.42027000  *
    16       H         17.14240000  *  -9.39494000  *  -0.66542000  *
    17       H         15.18564000  *  -7.80008000  *  -1.38246000  *
    18       H         14.87965000  *  -9.04741000  *  -0.12850000  *
 


          CARTESIAN COORDINATES 

    NO.       ATOM           X           Y           Z

     1         C         13.8749    -11.0518     -1.5640
     2         C         14.0079     -9.5665     -1.9984
     3         C         15.2193    -11.6904     -1.1197
     4         C         16.3698    -11.0647     -1.8990
     5         C         16.4843     -9.5563     -1.5466
     6         C         15.1215     -8.8946     -1.2041
     7         H         13.1760    -11.1622     -0.7066
     8         H         13.4350    -11.5941     -2.4289
     9         H         14.3017     -9.5044     -3.0701
    10         H         13.0259     -9.0589     -1.8886
    11         H         15.1620    -12.7936     -1.2364
    12         H         15.4106    -11.4745     -0.0448
    13         H         16.1265    -11.1899     -2.9778
    14         H         17.3448    -11.5637     -1.7137
    15         H         16.9650     -9.0651     -2.4203
    16         H         17.1424     -9.3949     -0.6654
    17         H         15.1856     -7.8001     -1.3825
    18         H         14.8796     -9.0474     -0.1285

 General Reference for PM6:
 "Optimization of Parameters for Semiempirical Methods V: Modification of NDDO Approximations
 and Application to 70 Elements", J. J. P. Stewart, J. Mol. Mod., 13, 1173-1213 (2007)
 URL: https://link.springer.com/article/10.1007/s00894-007-0233-4

           Empirical Formula: C6 H12  =    18 atoms



      MOLECULAR POINT GROUP   :   D2  


 SINGLET STATE CALCULATION


      RHF CALCULATION, NO. OF DOUBLY OCCUPIED LEVELS = 18


          Geometry optimization using EF

          DIAGONAL MATRIX USED AS START HESSIAN

 CYCLE:     1 TIME:   0.016 TIME LEFT:  2.00D  GRAD.:    29.828 HEAT: -21.56273
 CYCLE:     2 TIME:   0.016 TIME LEFT:  2.00D  GRAD.:    42.669 HEAT: -21.87726
 CYCLE:     3 TIME:   0.008 TIME LEFT:  2.00D  GRAD.:    27.850 HEAT: -22.62572
 CYCLE:     4 TIME:   0.008 TIME LEFT:  2.00D  GRAD.:    30.283 HEAT: -22.92197
 CYCLE:     5 TIME:   0.008 TIME LEFT:  2.00D  GRAD.:    12.871 HEAT: -23.52294
 CYCLE:     6 TIME:   0.000 TIME LEFT:  2.00D  GRAD.:    19.053 HEAT: -23.71311
 CYCLE:     7 TIME:   0.008 TIME LEFT:  2.00D  GRAD.:    23.322 HEAT: -23.73700
 CYCLE:     8 TIME:   0.008 TIME LEFT:  2.00D  GRAD.:    25.538 HEAT: -23.76259
 CYCLE:     9 TIME:   0.008 TIME LEFT:  2.00D  GRAD.:    11.692 HEAT: -23.96411
 CYCLE:    10 TIME:   0.008 TIME LEFT:  2.00D  GRAD.:     9.295 HEAT: -24.01113
 CYCLE:    11 TIME:   0.008 TIME LEFT:  2.00D  GRAD.:    11.147 HEAT: -24.02362
 CYCLE:    12 TIME:   0.008 TIME LEFT:  2.00D  GRAD.:    10.001 HEAT: -24.05794
 CYCLE:    13 TIME:   0.000 TIME LEFT:  2.00D  GRAD.:     6.263 HEAT: -24.10327
 CYCLE:    14 TIME:   0.008 TIME LEFT:  2.00D  GRAD.:     8.455 HEAT: -24.13005
 CYCLE:    15 TIME:   0.008 TIME LEFT:  2.00D  GRAD.:     7.482 HEAT: -24.18108
 CYCLE:    16 TIME:   0.000 TIME LEFT:  2.00D  GRAD.:     7.265 HEAT: -24.20716
 CYCLE:    17 TIME:   0.008 TIME LEFT:  2.00D  GRAD.:     5.402 HEAT: -24.22937
 CYCLE:    18 TIME:   0.000 TIME LEFT:  2.00D  GRAD.:     5.195 HEAT: -24.23875
 CYCLE:    19 TIME:   0.008 TIME LEFT:  2.00D  GRAD.:     5.911 HEAT: -24.24827
 CYCLE:    20 TIME:   0.000 TIME LEFT:  2.00D  GRAD.:     2.592 HEAT: -24.26672
 CYCLE:    21 TIME:   0.008 TIME LEFT:  2.00D  GRAD.:     2.913 HEAT: -24.28434
 CYCLE:    22 TIME:   0.000 TIME LEFT:  2.00D  GRAD.:     5.041 HEAT: -24.29850
 CYCLE:    23 TIME:   0.008 TIME LEFT:  2.00D  GRAD.:     2.613 HEAT: -24.31051
 CYCLE:    24 TIME:   0.000 TIME LEFT:  2.00D  GRAD.:     1.922 HEAT: -24.31676
 CYCLE:    25 TIME:   0.008 TIME LEFT:  2.00D  GRAD.:     2.403 HEAT: -24.32247
 CYCLE:    26 TIME:   0.000 TIME LEFT:  2.00D  GRAD.:     1.761 HEAT: -24.32565
 CYCLE:    27 TIME:   0.008 TIME LEFT:  2.00D  GRAD.:     0.855 HEAT: -24.32712

     GRADIENT =  0.85462 IS LESS THAN CUTOFF =  1.00000



 -------------------------------------------------------------------------------
 AUX LARGE CHARGE=0 SINGLET  PM6
 C6



     GEOMETRY OPTIMISED USING EIGENVECTOR FOLLOWING (EF).     
     SCF FIELD WAS ACHIEVED                                   


                              PM6 CALCULATION
                                                       MOPAC2016 (Version: 20.225L)
                                                       Mon Feb  1 20:47:56 2021
                                                       No. of days remaining = 193




          FINAL HEAT OF FORMATION =        -24.32712 KCAL/MOL =    -101.78465 KJ/MOL


          TOTAL ENERGY            =       -898.80319 EV
          ELECTRONIC ENERGY       =      -4376.93634 EV  POINT GROUP:     D2  
          CORE-CORE REPULSION     =       3478.13316 EV
          COSMO AREA              =        134.52 SQUARE ANGSTROMS
          COSMO VOLUME            =        129.47 CUBIC ANGSTROMS

          GRADIENT NORM           =          0.85462 = 0.20144 PER ATOM
          IONIZATION POTENTIAL    =         10.580622 EV
          HOMO LUMO ENERGIES (EV) =        -10.581  4.146
          NO. OF FILLED LEVELS    =         18
          MOLECULAR WEIGHT        =         84.1608

          MOLECULAR DIMENSIONS (Angstroms)

            Atom       Atom       Distance
            H    17    H    11     4.95952
            H    16    H    10     4.27491
            H    18    H    13     3.12710


          SCF CALCULATIONS        =         31
 
          WALL-CLOCK TIME         =          0.188 SECONDS
          COMPUTATION TIME        =          2.080 SECONDS




   ATOM   CHEMICAL          X               Y               Z
  NUMBER   SYMBOL      (ANGSTROMS)     (ANGSTROMS)     (ANGSTROMS)
 
     1       C         13.85573740  * -11.06206255  *  -1.55879818  *
     2       C         13.99707827  *  -9.58865923  *  -1.97536534  *
     3       C         15.19744687  * -11.69267858  *  -1.14821402  *
     4       C         16.37968892  * -11.04155506  *  -1.87690278  *
     5       C         16.50321065  *  -9.54536064  *  -1.54108881  *
     6       C         15.14456147  *  -8.89420697  *  -1.23171355  *
     7       H         13.14236950  * -11.14672077  *  -0.71845447  *
     8       H         13.41158721  * -11.63525744  *  -2.39363472  *
     9       H         14.17909622  *  -9.52688749  *  -3.06554445  *
    10       H         13.04712278  *  -9.05373816  *  -1.79188151  *
    11       H         15.18004083  * -12.77905786  *  -1.35134025  *
    12       H         15.33691201  * -11.58744553  *  -0.05484415  *
    13       H         16.24854601  * -11.16696273  *  -2.96927052  *
    14       H         17.31899170  * -11.56327136  *  -1.61801622  *
    15       H         16.98673394  *  -9.02153011  *  -2.38660099  *
    16       H         17.17683050  *  -9.41038425  *  -0.67415628  *
    17       H         15.17305377  *  -7.82167400  *  -1.49681025  *
    18       H         14.95385054  *  -8.93558465  *  -0.14223391  *

                             CARTESIAN COORDINATES

   1    C       13.855737404   -11.062062548    -1.558798182
   2    C       13.997078275    -9.588659231    -1.975365336
   3    C       15.197446870   -11.692678582    -1.148214016
   4    C       16.379688918   -11.041555058    -1.876902785
   5    C       16.503210654    -9.545360640    -1.541088812
   6    C       15.144561469    -8.894206967    -1.231713551
   7    H       13.142369501   -11.146720769    -0.718454474
   8    H       13.411587209   -11.635257440    -2.393634716
   9    H       14.179096218    -9.526887488    -3.065544452
  10    H       13.047122782    -9.053738164    -1.791881508
  11    H       15.180040831   -12.779057857    -1.351340252
  12    H       15.336912005   -11.587445533    -0.054844150
  13    H       16.248546008   -11.166962727    -2.969270519
  14    H       17.318991698   -11.563271358    -1.618016220
  15    H       16.986733942    -9.021530113    -2.386600988
  16    H       17.176830503    -9.410384250    -0.674156283
  17    H       15.173053772    -7.821673995    -1.496810250
  18    H       14.953850539    -8.935584652    -0.142233912


           Empirical Formula: C6 H12  =    18 atoms



      MOLECULAR POINT GROUP   :   D2  


                  EIGENVALUES  
 -29.31797 -25.70944 -25.62664 -21.40934 -20.97223 -17.72649 -16.47472 -16.12405
 -14.73142 -13.52362 -12.87707 -12.63651 -12.63156 -12.14039 -11.98206 -10.80057
 -10.77405 -10.58062   4.14585   4.27476   4.52217   4.67160   4.82166   5.31651
   5.61667   5.76459   5.98997   6.13344   6.35440   6.43997   6.55191   6.64277
   6.66014   6.71596   6.72138   6.84420


              NET ATOMIC CHARGES AND DIPOLE CONTRIBUTIONS

  ATOM NO.   TYPE          CHARGE      No. of ELECS.   s-Pop       p-Pop       
    1          C          -0.252157        4.2522     1.08685     3.16530
    2          C          -0.244793        4.2448     1.08541     3.15938
    3          C          -0.245037        4.2450     1.08556     3.15948
    4          C          -0.244766        4.2448     1.08558     3.15919
    5          C          -0.252147        4.2521     1.08704     3.16511
    6          C          -0.245078        4.2451     1.08540     3.15968
    7          H           0.122771        0.8772     0.87723
    8          H           0.122663        0.8773     0.87734
    9          H           0.128949        0.8711     0.87105
   10          H           0.119426        0.8806     0.88057
   11          H           0.119386        0.8806     0.88061
   12          H           0.128800        0.8712     0.87120
   13          H           0.128967        0.8710     0.87103
   14          H           0.119389        0.8806     0.88061
   15          H           0.122646        0.8774     0.87735
   16          H           0.122794        0.8772     0.87721
   17          H           0.119398        0.8806     0.88060
   18          H           0.128788        0.8712     0.87121
 DIPOLE           X         Y         Z       TOTAL
 POINT-CHG.    -0.000     0.000    -0.002     0.002
 HYBRID        -0.000     0.000     0.001     0.001
 SUM           -0.000     0.000    -0.000     0.000


          ATOMIC ORBITAL ELECTRON POPULATIONS

     Atom    s        px        py        pz   
    1  C   1.08685   1.03170   1.01121   1.12239
    2  C   1.08541   1.05658   1.00167   1.10113
    3  C   1.08556   0.98392   1.07293   1.10263
    4  C   1.08558   1.05217   1.00038   1.10664
    5  C   1.08704   1.02984   1.00708   1.12818
    6  C   1.08540   0.98541   1.06770   1.10657
    7  H   0.87723
    8  H   0.87734
    9  H   0.87105
   10  H   0.88057
   11  H   0.88061
   12  H   0.87120
   13  H   0.87103
   14  H   0.88061
   15  H   0.87735
   16  H   0.87721
   17  H   0.88060
   18  H   0.87121

 **********************
 *                    *
 * JOB ENDED NORMALLY *
 *                    *
 **********************



 TOTAL JOB TIME:             0.20 SECONDS

 == MOPAC DONE ==
