 *******************************************************************************
 ** Site#: 30659        For non-commercial use only    Version 20.225L 64BITS **
 *******************************************************************************
 ** Cite this program as: MOPAC2016, Version: 20.225L, James J. P. Stewart,   **
 ** Stewart Computational Chemistry, web: HTTP://OpenMOPAC.net. Days left: 192**
 *******************************************************************************
 **                                                                           **
 **                                MOPAC2016                                  **
 **                                                                           **
 *******************************************************************************

                              PM7 CALCULATION RESULTS

 *******************************************************************************
 *  CALCULATION DONE:                                Tue Feb  2 13:22:38 2021  *
 *  PM7        - The PM7 Hamiltonian to be used
 *  SINGLET    - SPIN STATE DEFINED AS A SINGLET
 *
 *
 *
 *                 CHARGE ON SYSTEM = 0
 *
 *
 *
 *  T=         - A TIME OF 172800.0 SECONDS REQUESTED
 *  DUMP=N     - RESTART FILE WRITTEN EVERY 7200.0 SECONDS REQUESTED
 *  AUX        - OUTPUT AUXILIARY INFORMATION
 *  LARGE      - EXPANDED OUTPUT TO BE PRINTED
 *******************************************************************************
 AUX LARGE CHARGE=0 SINGLET  PM7
 C6

   ATOM   CHEMICAL          X               Y               Z
  NUMBER   SYMBOL      (ANGSTROMS)     (ANGSTROMS)     (ANGSTROMS)
 
     1       C         13.87487000  * -11.05183000  *  -1.56397000  *
     2       C         14.00787000  *  -9.56655000  *  -1.99841000  *
     3       C         15.21925000  * -11.69042000  *  -1.11972000  *
     4       C         16.36982000  * -11.06469000  *  -1.89901000  *
     5       C         16.48435000  *  -9.55631000  *  -1.54663000  *
     6       C         15.12151000  *  -8.89462000  *  -1.20409000  *
     7       H         13.17602000  * -11.16217000  *  -0.70662000  *
     8       H         13.43499000  * -11.59411000  *  -2.42887000  *
     9       H         14.30165000  *  -9.50442000  *  -3.07012000  *
    10       H         13.02594000  *  -9.05888000  *  -1.88862000  *
    11       H         15.16204000  * -12.79363000  *  -1.23643000  *
    12       H         15.41064000  * -11.47451000  *  -0.04479000  *
    13       H         16.12650000  * -11.18995000  *  -2.97782000  *
    14       H         17.34482000  * -11.56370000  *  -1.71374000  *
    15       H         16.96503000  *  -9.06507000  *  -2.42027000  *
    16       H         17.14240000  *  -9.39494000  *  -0.66542000  *
    17       H         15.18564000  *  -7.80008000  *  -1.38246000  *
    18       H         14.87965000  *  -9.04741000  *  -0.12850000  *
 


          CARTESIAN COORDINATES 

    NO.       ATOM           X           Y           Z

     1         C         13.8749    -11.0518     -1.5640
     2         C         14.0079     -9.5665     -1.9984
     3         C         15.2193    -11.6904     -1.1197
     4         C         16.3698    -11.0647     -1.8990
     5         C         16.4843     -9.5563     -1.5466
     6         C         15.1215     -8.8946     -1.2041
     7         H         13.1760    -11.1622     -0.7066
     8         H         13.4350    -11.5941     -2.4289
     9         H         14.3017     -9.5044     -3.0701
    10         H         13.0259     -9.0589     -1.8886
    11         H         15.1620    -12.7936     -1.2364
    12         H         15.4106    -11.4745     -0.0448
    13         H         16.1265    -11.1899     -2.9778
    14         H         17.3448    -11.5637     -1.7137
    15         H         16.9650     -9.0651     -2.4203
    16         H         17.1424     -9.3949     -0.6654
    17         H         15.1856     -7.8001     -1.3825
    18         H         14.8796     -9.0474     -0.1285

 General Reference for PM7:
 "Optimization of Parameters for Semiempirical Methods VI: More Modifications to the 
 NDDO Approximations and Re-optimization of Parameters", J. J. P. Stewart, J. Mol. Mod., 1:32, 19 (2013)
 https://link.springer.com/article/10.1007/s00894-012-1667-x

           Empirical Formula: C6 H12  =    18 atoms



      MOLECULAR POINT GROUP   :   D2  


 SINGLET STATE CALCULATION


      RHF CALCULATION, NO. OF DOUBLY OCCUPIED LEVELS = 18


          Geometry optimization using EF

          DIAGONAL MATRIX USED AS START HESSIAN

 CYCLE:     1 TIME:   0.047 TIME LEFT:  2.00D  GRAD.:    31.029 HEAT: -21.29688
 CYCLE:     2 TIME:   0.008 TIME LEFT:  2.00D  GRAD.:    53.226 HEAT: -21.42964
 CYCLE:     3 TIME:   0.012 TIME LEFT:  2.00D  GRAD.:    28.322 HEAT: -22.56495
 CYCLE:     4 TIME:   0.004 TIME LEFT:  2.00D  GRAD.:    34.672 HEAT: -22.71432
 CYCLE:     5 TIME:   0.008 TIME LEFT:  2.00D  GRAD.:    12.565 HEAT: -23.44905
 CYCLE:     6 TIME:   0.004 TIME LEFT:  2.00D  GRAD.:    20.739 HEAT: -23.55577
 CYCLE:     7 TIME:   0.012 TIME LEFT:  2.00D  GRAD.:    14.567 HEAT: -23.72314
 CYCLE:     8 TIME:   0.012 TIME LEFT:  2.00D  GRAD.:    12.080 HEAT: -23.78754
 CYCLE:     9 TIME:   0.004 TIME LEFT:  2.00D  GRAD.:    10.519 HEAT: -23.82764
 CYCLE:    10 TIME:   0.008 TIME LEFT:  2.00D  GRAD.:    12.611 HEAT: -23.84122
 CYCLE:    11 TIME:   0.008 TIME LEFT:  2.00D  GRAD.:     5.992 HEAT: -23.89409
 CYCLE:    12 TIME:   0.012 TIME LEFT:  2.00D  GRAD.:     4.272 HEAT: -23.90931
 CYCLE:    13 TIME:   0.008 TIME LEFT:  2.00D  GRAD.:     2.824 HEAT: -23.92699
 CYCLE:    14 TIME:   0.004 TIME LEFT:  2.00D  GRAD.:     2.652 HEAT: -23.94525
 CYCLE:    15 TIME:   0.008 TIME LEFT:  2.00D  GRAD.:     2.226 HEAT: -23.96421
 CYCLE:    16 TIME:   0.004 TIME LEFT:  2.00D  GRAD.:     5.422 HEAT: -23.96675
 CYCLE:    17 TIME:   0.008 TIME LEFT:  2.00D  GRAD.:     2.830 HEAT: -23.97670
 CYCLE:    18 TIME:   0.004 TIME LEFT:  2.00D  GRAD.:     1.972 HEAT: -23.98135
 CYCLE:    19 TIME:   0.004 TIME LEFT:  2.00D  GRAD.:     2.280 HEAT: -23.98303
 CYCLE:    20 TIME:   0.004 TIME LEFT:  2.00D  GRAD.:     2.068 HEAT: -23.98687
 CYCLE:    21 TIME:   0.004 TIME LEFT:  2.00D  GRAD.:     1.551 HEAT: -23.99176
 CYCLE:    22 TIME:   0.004 TIME LEFT:  2.00D  GRAD.:     1.880 HEAT: -23.99740
 CYCLE:    23 TIME:   0.004 TIME LEFT:  2.00D  GRAD.:     1.613 HEAT: -24.00198
 CYCLE:    24 TIME:   0.004 TIME LEFT:  2.00D  GRAD.:     1.307 HEAT: -24.00513
 CYCLE:    25 TIME:   0.004 TIME LEFT:  2.00D  GRAD.:     1.488 HEAT: -24.00889
 CYCLE:    26 TIME:   0.004 TIME LEFT:  2.00D  GRAD.:     0.940 HEAT: -24.01019

     GRADIENT =  0.94029 IS LESS THAN CUTOFF =  1.00000



 -------------------------------------------------------------------------------
 AUX LARGE CHARGE=0 SINGLET  PM7
 C6



     GEOMETRY OPTIMISED USING EIGENVECTOR FOLLOWING (EF).     
     SCF FIELD WAS ACHIEVED                                   


                              PM7 CALCULATION
                                                       MOPAC2016 (Version: 20.225L)
                                                       Tue Feb  2 13:22:39 2021
                                                       No. of days remaining = 192




          FINAL HEAT OF FORMATION =        -24.01019 KCAL/MOL =    -100.45864 KJ/MOL


          TOTAL ENERGY            =       -899.55868 EV
          ELECTRONIC ENERGY       =      -4343.85909 EV  POINT GROUP:     D2  
          CORE-CORE REPULSION     =       3444.30042 EV
          COSMO AREA              =        134.42 SQUARE ANGSTROMS
          COSMO VOLUME            =        129.63 CUBIC ANGSTROMS

          GRADIENT NORM           =          0.94029 = 0.22163 PER ATOM
          IONIZATION POTENTIAL    =         10.620138 EV
          HOMO LUMO ENERGIES (EV) =        -10.620  4.030
          NO. OF FILLED LEVELS    =         18
          MOLECULAR WEIGHT        =         84.1608

          MOLECULAR DIMENSIONS (Angstroms)

            Atom       Atom       Distance
            H    17    H    11     4.94373
            H     7    H    14     4.27904
            H     9    H    12     3.14500


          SCF CALCULATIONS        =         32
 
          WALL-CLOCK TIME         =          0.234 SECONDS
          COMPUTATION TIME        =          2.621 SECONDS




   ATOM   CHEMICAL          X               Y               Z
  NUMBER   SYMBOL      (ANGSTROMS)     (ANGSTROMS)     (ANGSTROMS)
 
     1       C         13.85741211  * -11.06182844  *  -1.55992537  *
     2       C         14.01153772  *  -9.59295609  *  -1.99126258  *
     3       C         15.20001801  * -11.67772067  *  -1.13113703  *
     4       C         16.36577043  * -11.03746841  *  -1.89339421  *
     5       C         16.50177854  *  -9.54664088  *  -1.54235772  *
     6       C         15.14123708  *  -8.90782387  *  -1.21379071  *
     7       H         13.13537596  * -11.13613375  *  -0.72660254  *
     8       H         13.42231295  * -11.64605144  *  -2.39057554  *
     9       H         14.22478881  *  -9.53922880  *  -3.07550699  *
    10       H         13.05991344  *  -9.05318909  *  -1.84101598  *
    11       H         15.18555283  * -12.76947481  *  -1.29830167  *
    12       H         15.34758038  * -11.53877345  *  -0.04375077  *
    13       H         16.20318299  * -11.15502426  *  -2.98109223  *
    14       H         17.30852764  * -11.56675169  *  -1.66784116  *
    15       H         16.97626584  *  -9.01082720  *  -2.38468740  *
    16       H         17.18380236  *  -9.42201324  *  -0.68182972  *
    17       H         15.16502893  *  -7.82793647  *  -1.44413651  *
    18       H         14.94269826  *  -8.98340238  *  -0.12818966  *

                             CARTESIAN COORDINATES

   1    C       13.857412112   -11.061828439    -1.559925369
   2    C       14.011537724    -9.592956091    -1.991262576
   3    C       15.200018012   -11.677720674    -1.131137025
   4    C       16.365770428   -11.037468414    -1.893394206
   5    C       16.501778537    -9.546640880    -1.542357720
   6    C       15.141237080    -8.907823872    -1.213790712
   7    H       13.135375962   -11.136133748    -0.726602544
   8    H       13.422312947   -11.646051442    -2.390575542
   9    H       14.224788806    -9.539228803    -3.075506995
  10    H       13.059913442    -9.053189087    -1.841015984
  11    H       15.185552833   -12.769474810    -1.298301665
  12    H       15.347580382   -11.538773453    -0.043750765
  13    H       16.203182994   -11.155024260    -2.981092231
  14    H       17.308527644   -11.566751694    -1.667841161
  15    H       16.976265840    -9.010827200    -2.384687399
  16    H       17.183802360    -9.422013239    -0.681829719
  17    H       15.165028926    -7.827936472    -1.444136507
  18    H       14.942698255    -8.983402376    -0.128189659


           Empirical Formula: C6 H12  =    18 atoms



      MOLECULAR POINT GROUP   :   D2  


                  EIGENVALUES  
 -30.01996 -25.68498 -25.58081 -21.19854 -20.64587 -17.48245 -16.68738 -16.41147
 -14.89548 -13.54811 -12.96744 -12.71539 -12.70439 -12.28582 -12.08597 -10.85065
 -10.80986 -10.62014   4.02972   4.17199   4.41199   4.62280   4.81977   5.31661
   5.53361   5.67514   5.89346   6.06825   6.26127   6.34244   6.51021   6.70017
   6.77392   6.82062   6.83356   6.85877


              NET ATOMIC CHARGES AND DIPOLE CONTRIBUTIONS

  ATOM NO.   TYPE          CHARGE      No. of ELECS.   s-Pop       p-Pop       
    1          C          -0.264157        4.2642     1.05937     3.20479
    2          C          -0.258443        4.2584     1.05810     3.20034
    3          C          -0.258707        4.2587     1.05800     3.20071
    4          C          -0.258473        4.2585     1.05788     3.20059
    5          C          -0.264156        4.2642     1.05932     3.20483
    6          C          -0.258687        4.2587     1.05810     3.20059
    7          H           0.129177        0.8708     0.87082
    8          H           0.129074        0.8709     0.87093
    9          H           0.134975        0.8650     0.86502
   10          H           0.126558        0.8734     0.87344
   11          H           0.126617        0.8734     0.87338
   12          H           0.134861        0.8651     0.86514
   13          H           0.134987        0.8650     0.86501
   14          H           0.126609        0.8734     0.87339
   15          H           0.129121        0.8709     0.87088
   16          H           0.129175        0.8708     0.87082
   17          H           0.126596        0.8734     0.87340
   18          H           0.134871        0.8651     0.86513
 DIPOLE           X         Y         Z       TOTAL
 POINT-CHG.     0.001    -0.000    -0.002     0.002
 HYBRID        -0.000    -0.000     0.001     0.001
 SUM            0.000    -0.000    -0.001     0.001


          ATOMIC ORBITAL ELECTRON POPULATIONS

     Atom    s        px        py        pz   
    1  C   1.05937   1.04510   1.02433   1.13536
    2  C   1.05810   1.07401   1.01501   1.11132
    3  C   1.05800   0.99608   1.09172   1.11290
    4  C   1.05788   1.06945   1.01386   1.11728
    5  C   1.05932   1.04313   1.01986   1.14185
    6  C   1.05810   0.99760   1.08609   1.11689
    7  H   0.87082
    8  H   0.87093
    9  H   0.86502
   10  H   0.87344
   11  H   0.87338
   12  H   0.86514
   13  H   0.86501
   14  H   0.87339
   15  H   0.87088
   16  H   0.87082
   17  H   0.87340
   18  H   0.86513

 **********************
 *                    *
 * JOB ENDED NORMALLY *
 *                    *
 **********************



 TOTAL JOB TIME:             0.24 SECONDS

 == MOPAC DONE ==
