 *******************************************************************************
 ** Site#: 30659        For non-commercial use only    Version 20.225L 64BITS **
 *******************************************************************************
 ** Cite this program as: MOPAC2016, Version: 20.225L, James J. P. Stewart,   **
 ** Stewart Computational Chemistry, web: HTTP://OpenMOPAC.net. Days left: 192**
 *******************************************************************************
 **                                                                           **
 **                                MOPAC2016                                  **
 **                                                                           **
 *******************************************************************************

                              PM6 CALCULATION RESULTS

 *******************************************************************************
 *  CALCULATION DONE:                                Tue Feb  2 13:14:31 2021  *
 *  PM6        - The PM6 Hamiltonian to be used
 *  SINGLET    - SPIN STATE DEFINED AS A SINGLET
 *
 *
 *
 *                 CHARGE ON SYSTEM = 0
 *
 *
 *
 *  T=         - A TIME OF 172800.0 SECONDS REQUESTED
 *  DUMP=N     - RESTART FILE WRITTEN EVERY 7200.0 SECONDS REQUESTED
 *  AUX        - OUTPUT AUXILIARY INFORMATION
 *  LARGE      - EXPANDED OUTPUT TO BE PRINTED
 *******************************************************************************
 AUX LARGE CHARGE=0 SINGLET  PM6
 CO2

   ATOM   CHEMICAL          X               Y               Z
  NUMBER   SYMBOL      (ANGSTROMS)     (ANGSTROMS)     (ANGSTROMS)
 
     1       C         -3.70305000  *   2.16916000  *   0.18039000  *
     2       O         -2.55222000  *   1.89027000  *   0.35044000  *
     3       O         -4.85401000  *   2.44775000  *   0.01075000  *
 


          CARTESIAN COORDINATES 

    NO.       ATOM           X           Y           Z

     1         C         -3.7031      2.1692      0.1804
     2         O         -2.5522      1.8903      0.3504
     3         O         -4.8540      2.4478      0.0107

 General Reference for PM6:
 "Optimization of Parameters for Semiempirical Methods V: Modification of NDDO Approximations
 and Application to 70 Elements", J. J. P. Stewart, J. Mol. Mod., 13, 1173-1213 (2007)
 URL: https://link.springer.com/article/10.1007/s00894-007-0233-4

           Empirical Formula: C O2  =     3 atoms



      MOLECULAR POINT GROUP   :   D*h 


 SINGLET STATE CALCULATION


      RHF CALCULATION, NO. OF DOUBLY OCCUPIED LEVELS = 8


          Geometry optimization using EF

          DIAGONAL MATRIX USED AS START HESSIAN

 CYCLE:     1 TIME:   0.000 TIME LEFT:  2.00D  GRAD.:    88.129 HEAT: -83.14722
 CYCLE:     2 TIME:   0.000 TIME LEFT:  2.00D  GRAD.:    24.167 HEAT: -84.70161
 CYCLE:     3 TIME:   0.000 TIME LEFT:  2.00D  GRAD.:     1.805 HEAT: -84.81129
 CYCLE:     4 TIME:   0.004 TIME LEFT:  2.00D  GRAD.:     0.247 HEAT: -84.81193

     GRADIENT =  0.24715 IS LESS THAN CUTOFF =  1.00000



 -------------------------------------------------------------------------------
 AUX LARGE CHARGE=0 SINGLET  PM6
 CO2



     GEOMETRY OPTIMISED USING EIGENVECTOR FOLLOWING (EF).     
     SCF FIELD WAS ACHIEVED                                   


                              PM6 CALCULATION
                                                       MOPAC2016 (Version: 20.225L)
                                                       Tue Feb  2 13:14:31 2021
                                                       No. of days remaining = 192




          FINAL HEAT OF FORMATION =        -84.81193 KCAL/MOL =    -354.85312 KJ/MOL


          TOTAL ENERGY            =       -705.70976 EV
          ELECTRONIC ENERGY       =      -1346.46664 EV  POINT GROUP:     D*h 
          CORE-CORE REPULSION     =        640.75688 EV
          COSMO AREA              =         65.62 SQUARE ANGSTROMS
          COSMO VOLUME            =         47.31 CUBIC ANGSTROMS

          GRADIENT NORM           =          0.24715 = 0.14269 PER ATOM
          IONIZATION POTENTIAL    =         12.992100 EV
          HOMO LUMO ENERGIES (EV) =        -12.992  0.250
          NO. OF FILLED LEVELS    =          8
          MOLECULAR WEIGHT        =         44.0098

          MOLECULAR DIMENSIONS (Angstroms)

            Atom       Atom       Distance
            O     3    O     2     2.34048
            C     1    O     2     0.00030
            O     3    C     1     0.00000


          SCF CALCULATIONS        =          6
 
          WALL-CLOCK TIME         =          0.020 SECONDS
          COMPUTATION TIME        =          0.019 SECONDS




   ATOM   CHEMICAL          X               Y               Z
  NUMBER   SYMBOL      (ANGSTROMS)     (ANGSTROMS)     (ANGSTROMS)
 
     1       C         -3.70300917  *   2.16916729  *   0.18037379  *
     2       O         -2.57729462  *   1.89633549  *   0.34674921  *
     3       O         -4.82897075  *   2.44167820  *   0.01445484  *

                             CARTESIAN COORDINATES

   1    C       -3.703009174     2.169167287     0.180373788
   2    O       -2.577294621     1.896335487     0.346749208
   3    O       -4.828970752     2.441678199     0.014454839


           Empirical Formula: C O2  =     3 atoms



      MOLECULAR POINT GROUP   :   D*h 


                  EIGENVALUES  
 -35.55629 -33.68420 -21.53002 -18.07313 -18.07313 -16.46817 -12.99210 -12.99210
   0.25002   0.25003   1.14007   3.89302


              NET ATOMIC CHARGES AND DIPOLE CONTRIBUTIONS

  ATOM NO.   TYPE          CHARGE      No. of ELECS.   s-Pop       p-Pop       
    1          C           0.639413        3.3606     1.05819     2.30240
    2          O          -0.319667        6.3197     1.84863     4.47103
    3          O          -0.319746        6.3197     1.84869     4.47105
 DIPOLE           X         Y         Z       TOTAL
 POINT-CHG.     0.001     0.000    -0.001     0.001
 HYBRID         0.000     0.000    -0.000     0.000
 SUM            0.001     0.000    -0.001     0.001


          ATOMIC ORBITAL ELECTRON POPULATIONS

     Atom    s        px        py        pz   
    1  C   1.05819   0.80865   0.74806   0.74568
    2  O   1.84863   1.24618   1.60538   1.61947
    3  O   1.84869   1.24589   1.60554   1.61962

 **********************
 *                    *
 * JOB ENDED NORMALLY *
 *                    *
 **********************



 TOTAL JOB TIME:             0.02 SECONDS

 == MOPAC DONE ==
