 *******************************************************************************
 ** Site#: 30659        For non-commercial use only    Version 20.225L 64BITS **
 *******************************************************************************
 ** Cite this program as: MOPAC2016, Version: 20.225L, James J. P. Stewart,   **
 ** Stewart Computational Chemistry, web: HTTP://OpenMOPAC.net. Days left: 194**
 *******************************************************************************
 **                                                                           **
 **                                MOPAC2016                                  **
 **                                                                           **
 *******************************************************************************

                              PM6 CALCULATION RESULTS

 *******************************************************************************
 *  CALCULATION DONE:                                Sun Jan 31 20:55:42 2021  *
 *  PM6        - The PM6 Hamiltonian to be used
 *  SINGLET    - SPIN STATE DEFINED AS A SINGLET
 *
 *
 *
 *                 CHARGE ON SYSTEM = +2
 *
 *
 *
 *  T=         - A TIME OF 172800.0 SECONDS REQUESTED
 *  DUMP=N     - RESTART FILE WRITTEN EVERY 7200.0 SECONDS REQUESTED
 *  AUX        - OUTPUT AUXILIARY INFORMATION
 *  LARGE      - EXPANDED OUTPUT TO BE PRINTED
 *******************************************************************************
 AUX LARGE CHARGE=2 SINGLET  PM6
 CPM_P2

   ATOM   CHEMICAL          X               Y               Z
  NUMBER   SYMBOL      (ANGSTROMS)     (ANGSTROMS)     (ANGSTROMS)
 
     1       C          9.52794000  *  -3.33225000  *  -0.30950000  *
     2       C          8.11492000  *  -3.23311000  *  -0.10082000  *
     3       C          7.56488000  *  -1.93304000  *   0.06611000  *
     4       C          8.38584000  *  -0.80674000  *   0.02958000  *
     5       C          9.74781000  *  -0.95582000  *  -0.17756000  *
     6       N         10.27347000  *  -2.19132000  *  -0.34392000  *
     7      Cl          5.83739000  *  -1.64230000  *   0.27844000  *
     8       C         10.30260000  *  -4.62363000  *  -0.50981000  *
     9       C         11.38232000  *  -4.88698000  *   0.52688000  *
    10       C         12.23506000  *  -5.98709000  *   0.32176000  *
    11       C         13.25489000  *  -6.28070000  *   1.23177000  *
    12       C         13.43539000  *  -5.48265000  *   2.36234000  *
    13       C         12.59405000  *  -4.39170000  *   2.58661000  *
    14       C         11.57251000  *  -4.09211000  *   1.67953000  *
    15       C          7.17536000  *  -4.43423000  *  -0.07891000  *
    16       C          6.64997000  *  -4.73392000  *   1.34012000  *
    17       N          5.60470000  *  -5.78348000  *   1.33616000  *
    18       C          6.15091000  *  -7.11889000  *   1.03460000  *
    19       C          4.92223000  *  -5.81919000  *   2.64051000  *
    20       H          9.67645000  *  -5.52755000  *  -0.53508000  *
    21       H         10.79120000  *  -4.54307000  *  -1.50496000  *
    22       H          6.33266000  *  -4.23228000  *  -0.77445000  *
    23       H          7.65166000  *  -5.34158000  *  -0.46543000  *
    24       H          7.96750000  *   0.18453000  *   0.15116000  *
    25       H         10.39179000  *  -0.08736000  *  -0.21312000  *
    26       H         12.11274000  *  -6.61704000  *  -0.55101000  *
    27       H         10.94031000  *  -3.24258000  *   1.89429000  *
    28       H         13.90674000  *  -7.12738000  *   1.05893000  *
    29       H         14.22606000  *  -5.71052000  *   3.06562000  *
    30       H         12.73340000  *  -3.77592000  *   3.46593000  *
    31       H          7.49677000  *  -5.01641000  *   2.00638000  *
    32       H          6.21301000  *  -3.80337000  *   1.75374000  *
    33       H          6.95481000  *  -7.39800000  *   1.75107000  *
    34       H          5.34544000  *  -7.88372000  *   1.08423000  *
    35       H          6.54328000  *  -7.16449000  *  -0.00004000  *
    36       H          5.63249000  *  -6.06849000  *   3.46028000  *
    37       H          4.44991000  *  -4.83655000  *   2.85663000  *
    38       H          4.10352000  *  -6.57095000  *   2.62764000  *
 


          CARTESIAN COORDINATES 

    NO.       ATOM           X           Y           Z

     1         C          9.5279     -3.3323     -0.3095
     2         C          8.1149     -3.2331     -0.1008
     3         C          7.5649     -1.9330      0.0661
     4         C          8.3858     -0.8067      0.0296
     5         C          9.7478     -0.9558     -0.1776
     6         N         10.2735     -2.1913     -0.3439
     7        Cl          5.8374     -1.6423      0.2784
     8         C         10.3026     -4.6236     -0.5098
     9         C         11.3823     -4.8870      0.5269
    10         C         12.2351     -5.9871      0.3218
    11         C         13.2549     -6.2807      1.2318
    12         C         13.4354     -5.4826      2.3623
    13         C         12.5940     -4.3917      2.5866
    14         C         11.5725     -4.0921      1.6795
    15         C          7.1754     -4.4342     -0.0789
    16         C          6.6500     -4.7339      1.3401
    17         N          5.6047     -5.7835      1.3362
    18         C          6.1509     -7.1189      1.0346
    19         C          4.9222     -5.8192      2.6405
    20         H          9.6765     -5.5275     -0.5351
    21         H         10.7912     -4.5431     -1.5050
    22         H          6.3327     -4.2323     -0.7744
    23         H          7.6517     -5.3416     -0.4654
    24         H          7.9675      0.1845      0.1512
    25         H         10.3918     -0.0874     -0.2131
    26         H         12.1127     -6.6170     -0.5510
    27         H         10.9403     -3.2426      1.8943
    28         H         13.9067     -7.1274      1.0589
    29         H         14.2261     -5.7105      3.0656
    30         H         12.7334     -3.7759      3.4659
    31         H          7.4968     -5.0164      2.0064
    32         H          6.2130     -3.8034      1.7537
    33         H          6.9548     -7.3980      1.7511
    34         H          5.3454     -7.8837      1.0842
    35         H          6.5433     -7.1645     -0.0000
    36         H          5.6325     -6.0685      3.4603
    37         H          4.4499     -4.8365      2.8566
    38         H          4.1035     -6.5709      2.6276

 General Reference for PM6:
 "Optimization of Parameters for Semiempirical Methods V: Modification of NDDO Approximations
 and Application to 70 Elements", J. J. P. Stewart, J. Mol. Mod., 13, 1173-1213 (2007)
 URL: https://link.springer.com/article/10.1007/s00894-007-0233-4

           Empirical Formula: C16 H19 N2 Cl  =    38 atoms



      MOLECULAR POINT GROUP   :   C1  


 SINGLET STATE CALCULATION


      RHF CALCULATION, NO. OF DOUBLY OCCUPIED LEVELS = 49


          Geometry optimization using L-BFGS


 ALL CONVERGERS ARE NOW FORCED ON
 SHIFT=10, PULAY ON, CAMP-KING ON
 AND ITERATION COUNTER RESET


 CYCLE:     1 TIME:   4.680 TIME LEFT:  2.00D  GRAD.:   174.824 HEAT:  550.7529
 CYCLE:     2 TIME:   0.031 TIME LEFT:  2.00D  GRAD.:   171.960 HEAT:  550.4496
 CYCLE:     3 TIME:   0.516 TIME LEFT:  2.00D  GRAD.:    57.862 HEAT:  538.9910
 CYCLE:     4 TIME:   0.539 TIME LEFT:  2.00D  GRAD.:   171.827 HEAT:  550.4659
 CYCLE:     5 TIME:   0.547 TIME LEFT:  2.00D  GRAD.:    92.454 HEAT:  543.8101
 CYCLE:     6 TIME:   0.531 TIME LEFT:  2.00D  GRAD.:   302.955 HEAT:  562.7414
 CYCLE:     7 TIME:   0.680 TIME LEFT:  2.00D  GRAD.:    53.053 HEAT:  537.8530
 CYCLE:     8 TIME:   0.797 TIME LEFT:  2.00D  GRAD.:    47.136 HEAT:  537.2467
 CYCLE:     9 TIME:   0.766 TIME LEFT:  2.00D  GRAD.:    57.098 HEAT:  536.1155
 CYCLE:    10 TIME:   0.547 TIME LEFT:  2.00D  GRAD.:    64.684 HEAT:  535.1150
 CYCLE:    11 TIME:   0.766 TIME LEFT:  2.00D  GRAD.:    78.123 HEAT:  534.6266
 CYCLE:    12 TIME:   0.641 TIME LEFT:  2.00D  GRAD.:    64.694 HEAT:  533.9690
 CYCLE:    13 TIME:   0.523 TIME LEFT:  2.00D  GRAD.:    65.269 HEAT:  533.6660
 CYCLE:    14 TIME:   0.516 TIME LEFT:  2.00D  GRAD.:    69.368 HEAT:  533.3652
 CYCLE:    15 TIME:   0.602 TIME LEFT:  2.00D  GRAD.:    76.818 HEAT:  533.1624
 CYCLE:    16 TIME:   0.594 TIME LEFT:  2.00D  GRAD.:    76.796 HEAT:  532.8409
 CYCLE:    17 TIME:   0.492 TIME LEFT:  2.00D  GRAD.:    58.107 HEAT:  530.8046
 CYCLE:    18 TIME:   0.578 TIME LEFT:  2.00D  GRAD.:    45.093 HEAT:  527.9886
 CYCLE:    19 TIME:   0.945 TIME LEFT:  2.00D  GRAD.:    37.417 HEAT:  525.6992
 CYCLE:    20 TIME:   0.773 TIME LEFT:  2.00D  GRAD.:    73.543 HEAT:  525.8842
 CYCLE:    21 TIME:   0.633 TIME LEFT:  2.00D  GRAD.:    23.363 HEAT:  524.6726
 CYCLE:    22 TIME:   0.664 TIME LEFT:  2.00D  GRAD.:    12.725 HEAT:  524.4192
 CYCLE:    23 TIME:   0.695 TIME LEFT:  2.00D  GRAD.:    17.828 HEAT:  524.1402
 CYCLE:    24 TIME:   0.555 TIME LEFT:  2.00D  GRAD.:    19.428 HEAT:  523.8039
 CYCLE:    25 TIME:   0.672 TIME LEFT:  2.00D  GRAD.:    32.772 HEAT:  523.6351
 CYCLE:    26 TIME:   0.852 TIME LEFT:  2.00D  GRAD.:    14.391 HEAT:  523.3646
 CYCLE:    27 TIME:   0.641 TIME LEFT:  2.00D  GRAD.:    10.573 HEAT:  523.2703
 CYCLE:    28 TIME:   0.688 TIME LEFT:  2.00D  GRAD.:    16.652 HEAT:  523.1790
 CYCLE:    29 TIME:   0.703 TIME LEFT:  2.00D  GRAD.:    11.318 HEAT:  523.0973
 CYCLE:    30 TIME:   0.727 TIME LEFT:  2.00D  GRAD.:    10.496 HEAT:  522.9323
 CYCLE:    31 TIME:   0.617 TIME LEFT:  2.00D  GRAD.:    13.393 HEAT:  522.7877
 CYCLE:    32 TIME:   0.656 TIME LEFT:  2.00D  GRAD.:    24.022 HEAT:  522.5863
 CYCLE:    33 TIME:   0.648 TIME LEFT:  2.00D  GRAD.:    18.603 HEAT:  522.3414
 CYCLE:    34 TIME:   0.375 TIME LEFT:  2.00D  GRAD.:    13.828 HEAT:  521.9668
 CYCLE:    35 TIME:   0.031 TIME LEFT:  2.00D  GRAD.:    20.188 HEAT:  521.6109
 CYCLE:    36 TIME:   0.039 TIME LEFT:  2.00D  GRAD.:    30.100 HEAT:  521.0130
 CYCLE:    37 TIME:   0.062 TIME LEFT:  2.00D  GRAD.:    50.393 HEAT:  519.8813
 CYCLE:    38 TIME:   0.039 TIME LEFT:  2.00D  GRAD.:    78.693 HEAT:  517.8196
 CYCLE:    39 TIME:   0.047 TIME LEFT:  2.00D  GRAD.:   106.450 HEAT:  514.7514
 CYCLE:    40 TIME:   0.062 TIME LEFT:  2.00D  GRAD.:   144.733 HEAT:  510.6636
 CYCLE:    41 TIME:   0.047 TIME LEFT:  2.00D  GRAD.:   188.332 HEAT:  510.0570
 CYCLE:    42 TIME:   0.047 TIME LEFT:  2.00D  GRAD.:   150.493 HEAT:  502.5461
 CYCLE:    43 TIME:   0.055 TIME LEFT:  2.00D  GRAD.:   608.744 HEAT:  551.5794
 CYCLE:    44 TIME:   0.047 TIME LEFT:  2.00D  GRAD.:   341.042 HEAT:  524.1381
 CYCLE:    45 TIME:   0.047 TIME LEFT:  2.00D  GRAD.:   236.242 HEAT:  513.4416
 CYCLE:    46 TIME:   0.047 TIME LEFT:  2.00D  GRAD.:   158.342 HEAT:  499.6849
 CYCLE:    47 TIME:   0.047 TIME LEFT:  2.00D  GRAD.:   214.865 HEAT:  506.1525
 CYCLE:    48 TIME:   0.039 TIME LEFT:  2.00D  GRAD.:   126.234 HEAT:  494.2415
 CYCLE:    49 TIME:   0.047 TIME LEFT:  2.00D  GRAD.:    96.609 HEAT:  490.3510
 CYCLE:    50 TIME:   0.039 TIME LEFT:  2.00D  GRAD.:    63.928 HEAT:  488.4089
 CYCLE:    51 TIME:   0.047 TIME LEFT:  2.00D  GRAD.:    67.135 HEAT:  487.2590
 CYCLE:    52 TIME:   0.039 TIME LEFT:  2.00D  GRAD.:    30.285 HEAT:  486.0088
 CYCLE:    53 TIME:   0.039 TIME LEFT:  2.00D  GRAD.:    28.954 HEAT:  485.2757
 CYCLE:    54 TIME:   0.039 TIME LEFT:  2.00D  GRAD.:    39.391 HEAT:  484.2664
 CYCLE:    55 TIME:   0.039 TIME LEFT:  2.00D  GRAD.:    61.000 HEAT:  482.3362
 CYCLE:    56 TIME:   0.039 TIME LEFT:  2.00D  GRAD.:    57.608 HEAT:  480.4759
 CYCLE:    57 TIME:   0.039 TIME LEFT:  2.00D  GRAD.:    34.062 HEAT:  479.0719
 CYCLE:    58 TIME:   0.031 TIME LEFT:  2.00D  GRAD.:    26.606 HEAT:  478.1882
 CYCLE:    59 TIME:   0.039 TIME LEFT:  2.00D  GRAD.:    25.395 HEAT:  477.7348
 CYCLE:    60 TIME:   0.031 TIME LEFT:  2.00D  GRAD.:    23.436 HEAT:  477.0801
 CYCLE:    61 TIME:   0.031 TIME LEFT:  2.00D  GRAD.:    33.163 HEAT:  476.6487
 CYCLE:    62 TIME:   0.031 TIME LEFT:  2.00D  GRAD.:    19.691 HEAT:  476.2492
 CYCLE:    63 TIME:   0.031 TIME LEFT:  2.00D  GRAD.:    17.148 HEAT:  475.8812
 CYCLE:    64 TIME:   0.039 TIME LEFT:  2.00D  GRAD.:    17.253 HEAT:  475.5602
 CYCLE:    65 TIME:   0.039 TIME LEFT:  2.00D  GRAD.:    38.379 HEAT:  475.2011
 CYCLE:    66 TIME:   0.039 TIME LEFT:  2.00D  GRAD.:    22.005 HEAT:  474.6820
 CYCLE:    67 TIME:   0.055 TIME LEFT:  2.00D  GRAD.:    21.328 HEAT:  474.1550
 CYCLE:    68 TIME:   0.039 TIME LEFT:  2.00D  GRAD.:    32.122 HEAT:  473.4387
 CYCLE:    69 TIME:   0.047 TIME LEFT:  2.00D  GRAD.:    35.080 HEAT:  472.7920
 CYCLE:    70 TIME:   0.031 TIME LEFT:  2.00D  GRAD.:    28.494 HEAT:  472.1627
 CYCLE:    71 TIME:   0.031 TIME LEFT:  2.00D  GRAD.:    36.738 HEAT:  471.5692
 CYCLE:    72 TIME:   0.031 TIME LEFT:  2.00D  GRAD.:    41.775 HEAT:  470.7898
 CYCLE:    73 TIME:   0.031 TIME LEFT:  2.00D  GRAD.:    30.139 HEAT:  470.0516
 CYCLE:    74 TIME:   0.031 TIME LEFT:  2.00D  GRAD.:    32.938 HEAT:  469.2810
 CYCLE:    75 TIME:   0.031 TIME LEFT:  2.00D  GRAD.:    25.680 HEAT:  468.5091
 CYCLE:    76 TIME:   0.031 TIME LEFT:  2.00D  GRAD.:    27.759 HEAT:  467.6891
 CYCLE:    77 TIME:   0.039 TIME LEFT:  2.00D  GRAD.:    42.579 HEAT:  466.8670
 CYCLE:    78 TIME:   0.031 TIME LEFT:  2.00D  GRAD.:    26.209 HEAT:  466.0332
 CYCLE:    79 TIME:   0.031 TIME LEFT:  2.00D  GRAD.:    26.762 HEAT:  465.3778
 CYCLE:    80 TIME:   0.031 TIME LEFT:  2.00D  GRAD.:    29.995 HEAT:  464.8556
 CYCLE:    81 TIME:   0.031 TIME LEFT:  2.00D  GRAD.:    26.687 HEAT:  464.0709
 CYCLE:    82 TIME:   0.039 TIME LEFT:  2.00D  GRAD.:    47.754 HEAT:  463.7048
 CYCLE:    83 TIME:   0.031 TIME LEFT:  2.00D  GRAD.:    19.383 HEAT:  463.1627
 CYCLE:    84 TIME:   0.039 TIME LEFT:  2.00D  GRAD.:    19.274 HEAT:  462.8532
 CYCLE:    85 TIME:   0.039 TIME LEFT:  2.00D  GRAD.:    22.921 HEAT:  462.4149
 CYCLE:    86 TIME:   0.031 TIME LEFT:  2.00D  GRAD.:    31.387 HEAT:  461.6537
 CYCLE:    87 TIME:   0.039 TIME LEFT:  2.00D  GRAD.:    82.286 HEAT:  462.0617
 CYCLE:    88 TIME:   0.031 TIME LEFT:  2.00D  GRAD.:    26.066 HEAT:  460.8088
 CYCLE:    89 TIME:   0.031 TIME LEFT:  2.00D  GRAD.:    30.781 HEAT:  460.7592
 CYCLE:    90 TIME:   0.031 TIME LEFT:  2.00D  GRAD.:    14.174 HEAT:  460.2535
 CYCLE:    91 TIME:   0.031 TIME LEFT:  2.00D  GRAD.:    18.647 HEAT:  459.9128
 CYCLE:    92 TIME:   0.039 TIME LEFT:  2.00D  GRAD.:    32.411 HEAT:  459.5271
 CYCLE:    93 TIME:   0.031 TIME LEFT:  2.00D  GRAD.:    21.554 HEAT:  459.0371
 CYCLE:    94 TIME:   0.031 TIME LEFT:  2.00D  GRAD.:    14.658 HEAT:  458.7134
 CYCLE:    95 TIME:   0.031 TIME LEFT:  2.00D  GRAD.:    14.043 HEAT:  458.5039
 CYCLE:    96 TIME:   0.031 TIME LEFT:  2.00D  GRAD.:    31.716 HEAT:  458.3620
 CYCLE:    97 TIME:   0.031 TIME LEFT:  2.00D  GRAD.:    20.524 HEAT:  458.0853
 CYCLE:    98 TIME:   0.031 TIME LEFT:  2.00D  GRAD.:    11.812 HEAT:  457.9263
 CYCLE:    99 TIME:   0.039 TIME LEFT:  2.00D  GRAD.:    12.699 HEAT:  457.7013
 CYCLE:   100 TIME:   0.039 TIME LEFT:  2.00D  GRAD.:    25.718 HEAT:  457.4261
 CYCLE:   101 TIME:   0.031 TIME LEFT:  2.00D  GRAD.:    20.741 HEAT:  457.0930
 CYCLE:   102 TIME:   0.031 TIME LEFT:  2.00D  GRAD.:    19.536 HEAT:  456.7004
 CYCLE:   103 TIME:   0.031 TIME LEFT:  2.00D  GRAD.:    25.931 HEAT:  456.2982
 CYCLE:   104 TIME:   0.031 TIME LEFT:  2.00D  GRAD.:    16.995 HEAT:  455.9829
 CYCLE:   105 TIME:   0.055 TIME LEFT:  2.00D  GRAD.:    16.974 HEAT:  455.7021
 CYCLE:   106 TIME:   0.031 TIME LEFT:  2.00D  GRAD.:    22.309 HEAT:  455.3643
 CYCLE:   107 TIME:   0.094 TIME LEFT:  2.00D  GRAD.:    23.348 HEAT:  455.0855
 CYCLE:   108 TIME:   0.031 TIME LEFT:  2.00D  GRAD.:    36.976 HEAT:  454.8824
 CYCLE:   109 TIME:   0.031 TIME LEFT:  2.00D  GRAD.:    13.566 HEAT:  454.4365
 CYCLE:   110 TIME:   0.031 TIME LEFT:  2.00D  GRAD.:    25.171 HEAT:  454.2540
 CYCLE:   111 TIME:   0.031 TIME LEFT:  2.00D  GRAD.:    22.987 HEAT:  453.9313
 CYCLE:   112 TIME:   0.031 TIME LEFT:  2.00D  GRAD.:    15.290 HEAT:  453.7111
 CYCLE:   113 TIME:   0.039 TIME LEFT:  2.00D  GRAD.:    16.636 HEAT:  453.3489
 CYCLE:   114 TIME:   0.031 TIME LEFT:  2.00D  GRAD.:    22.241 HEAT:  453.0870
 CYCLE:   115 TIME:   0.031 TIME LEFT:  2.00D  GRAD.:    31.140 HEAT:  452.6569
 CYCLE:   116 TIME:   0.031 TIME LEFT:  2.00D  GRAD.:    25.343 HEAT:  452.1603
 CYCLE:   117 TIME:   0.031 TIME LEFT:  2.00D  GRAD.:    22.021 HEAT:  451.7467
 CYCLE:   118 TIME:   0.031 TIME LEFT:  2.00D  GRAD.:    36.717 HEAT:  451.5877
 CYCLE:   119 TIME:   0.039 TIME LEFT:  2.00D  GRAD.:    22.845 HEAT:  450.7555
 CYCLE:   120 TIME:   0.031 TIME LEFT:  2.00D  GRAD.:    21.536 HEAT:  450.3250
 CYCLE:   121 TIME:   0.031 TIME LEFT:  2.00D  GRAD.:    24.864 HEAT:  449.8526
 CYCLE:   122 TIME:   0.031 TIME LEFT:  2.00D  GRAD.:    27.588 HEAT:  449.2111
 CYCLE:   123 TIME:   0.031 TIME LEFT:  2.00D  GRAD.:    33.130 HEAT:  448.5801
 CYCLE:   124 TIME:   0.031 TIME LEFT:  2.00D  GRAD.:    29.437 HEAT:  447.9938
 CYCLE:   125 TIME:   0.031 TIME LEFT:  2.00D  GRAD.:    25.638 HEAT:  447.4179
 CYCLE:   126 TIME:   0.031 TIME LEFT:  2.00D  GRAD.:    30.320 HEAT:  446.6725
 CYCLE:   127 TIME:   0.031 TIME LEFT:  2.00D  GRAD.:    25.934 HEAT:  446.1688
 CYCLE:   128 TIME:   0.039 TIME LEFT:  2.00D  GRAD.:    25.705 HEAT:  445.5546
 CYCLE:   129 TIME:   0.031 TIME LEFT:  2.00D  GRAD.:    31.309 HEAT:  444.9974
 CYCLE:   130 TIME:   0.031 TIME LEFT:  2.00D  GRAD.:    28.279 HEAT:  444.4938
 CYCLE:   131 TIME:   0.039 TIME LEFT:  2.00D  GRAD.:    21.826 HEAT:  444.0835
 CYCLE:   132 TIME:   0.039 TIME LEFT:  2.00D  GRAD.:    30.770 HEAT:  443.6086
 CYCLE:   133 TIME:   0.031 TIME LEFT:  2.00D  GRAD.:    28.063 HEAT:  443.2982
 CYCLE:   134 TIME:   0.031 TIME LEFT:  2.00D  GRAD.:    19.652 HEAT:  442.9742
 CYCLE:   135 TIME:   0.039 TIME LEFT:  2.00D  GRAD.:    22.287 HEAT:  442.4946
 CYCLE:   136 TIME:   0.031 TIME LEFT:  2.00D  GRAD.:    19.683 HEAT:  442.1675
 CYCLE:   137 TIME:   0.031 TIME LEFT:  2.00D  GRAD.:    32.339 HEAT:  442.0324
 CYCLE:   138 TIME:   0.031 TIME LEFT:  2.00D  GRAD.:    20.069 HEAT:  441.4286
 CYCLE:   139 TIME:   0.031 TIME LEFT:  2.00D  GRAD.:    13.997 HEAT:  441.2127
 CYCLE:   140 TIME:   0.031 TIME LEFT:  2.00D  GRAD.:    14.198 HEAT:  441.0031
 CYCLE:   141 TIME:   0.031 TIME LEFT:  2.00D  GRAD.:    17.544 HEAT:  440.7811
 CYCLE:   142 TIME:   0.031 TIME LEFT:  2.00D  GRAD.:    15.137 HEAT:  440.5480
 CYCLE:   143 TIME:   0.031 TIME LEFT:  2.00D  GRAD.:    14.480 HEAT:  440.2901
 CYCLE:   144 TIME:   0.039 TIME LEFT:  2.00D  GRAD.:    22.382 HEAT:  440.0388
 CYCLE:   145 TIME:   0.031 TIME LEFT:  2.00D  GRAD.:    19.043 HEAT:  439.7938
 CYCLE:   146 TIME:   0.031 TIME LEFT:  2.00D  GRAD.:    28.747 HEAT:  439.7055
 CYCLE:   147 TIME:   0.031 TIME LEFT:  2.00D  GRAD.:    22.531 HEAT:  439.2687
 CYCLE:   148 TIME:   0.031 TIME LEFT:  2.00D  GRAD.:    14.144 HEAT:  439.0456
 CYCLE:   149 TIME:   0.031 TIME LEFT:  2.00D  GRAD.:    12.870 HEAT:  438.8205
 CYCLE:   150 TIME:   0.039 TIME LEFT:  2.00D  GRAD.:    21.355 HEAT:  438.6568
 CYCLE:   151 TIME:   0.023 TIME LEFT:  2.00D  GRAD.:    14.021 HEAT:  438.4778
 CYCLE:   152 TIME:   0.031 TIME LEFT:  2.00D  GRAD.:     9.879 HEAT:  438.3796
 CYCLE:   153 TIME:   0.031 TIME LEFT:  2.00D  GRAD.:     9.379 HEAT:  438.2875
 CYCLE:   154 TIME:   0.039 TIME LEFT:  2.00D  GRAD.:    12.826 HEAT:  438.2112
 CYCLE:   155 TIME:   0.023 TIME LEFT:  2.00D  GRAD.:    31.753 HEAT:  438.2694
 CYCLE:   156 TIME:   0.031 TIME LEFT:  2.00D  GRAD.:     9.079 HEAT:  438.0474
 CYCLE:   157 TIME:   0.031 TIME LEFT:  2.00D  GRAD.:     6.191 HEAT:  438.0072
 CYCLE:   158 TIME:   0.031 TIME LEFT:  2.00D  GRAD.:     8.622 HEAT:  437.9554
 CYCLE:   159 TIME:   0.031 TIME LEFT:  2.00D  GRAD.:    13.279 HEAT:  437.8804
 CYCLE:   160 TIME:   0.031 TIME LEFT:  2.00D  GRAD.:    11.669 HEAT:  437.7692
 CYCLE:   161 TIME:   0.031 TIME LEFT:  2.00D  GRAD.:    10.379 HEAT:  437.6184
 CYCLE:   162 TIME:   0.039 TIME LEFT:  2.00D  GRAD.:    20.427 HEAT:  437.5150
 CYCLE:   163 TIME:   0.023 TIME LEFT:  2.00D  GRAD.:     9.450 HEAT:  437.3791
 CYCLE:   164 TIME:   0.055 TIME LEFT:  2.00D  GRAD.:     8.333 HEAT:  437.3067
 CYCLE:   165 TIME:   0.039 TIME LEFT:  2.00D  GRAD.:    12.345 HEAT:  437.2238
 CYCLE:   166 TIME:   0.039 TIME LEFT:  2.00D  GRAD.:    23.009 HEAT:  437.2740
 CYCLE:   167 TIME:   0.031 TIME LEFT:  2.00D  GRAD.:    14.563 HEAT:  437.0793
 CYCLE:   168 TIME:   0.031 TIME LEFT:  2.00D  GRAD.:     8.458 HEAT:  437.0210
 CYCLE:   169 TIME:   0.031 TIME LEFT:  2.00D  GRAD.:     7.316 HEAT:  436.9676
 CYCLE:   170 TIME:   0.031 TIME LEFT:  2.00D  GRAD.:     8.444 HEAT:  436.8704
 CYCLE:   171 TIME:   0.047 TIME LEFT:  2.00D  GRAD.:    11.673 HEAT:  436.7646
 CYCLE:   172 TIME:   0.055 TIME LEFT:  2.00D  GRAD.:     8.944 HEAT:  436.6743
 CYCLE:   173 TIME:   0.039 TIME LEFT:  2.00D  GRAD.:     8.142 HEAT:  436.5971
 CYCLE:   174 TIME:   0.031 TIME LEFT:  2.00D  GRAD.:    12.791 HEAT:  436.5392
 CYCLE:   175 TIME:   0.039 TIME LEFT:  2.00D  GRAD.:    21.047 HEAT:  436.5093
 CYCLE:   176 TIME:   0.031 TIME LEFT:  2.00D  GRAD.:     9.039 HEAT:  436.3706
 CYCLE:   177 TIME:   0.031 TIME LEFT:  2.00D  GRAD.:     6.568 HEAT:  436.3293
 CYCLE:   178 TIME:   0.031 TIME LEFT:  2.00D  GRAD.:     7.678 HEAT:  436.2944
 CYCLE:   179 TIME:   0.031 TIME LEFT:  2.00D  GRAD.:    11.239 HEAT:  436.2334
 CYCLE:   180 TIME:   0.031 TIME LEFT:  2.00D  GRAD.:     7.812 HEAT:  436.1385
 CYCLE:   181 TIME:   0.031 TIME LEFT:  2.00D  GRAD.:     7.856 HEAT:  436.0667
 CYCLE:   182 TIME:   0.031 TIME LEFT:  2.00D  GRAD.:     7.989 HEAT:  435.9994
 CYCLE:   183 TIME:   0.031 TIME LEFT:  2.00D  GRAD.:     6.233 HEAT:  435.9418
 CYCLE:   184 TIME:   0.039 TIME LEFT:  2.00D  GRAD.:    14.082 HEAT:  435.8738
 CYCLE:   185 TIME:   0.031 TIME LEFT:  2.00D  GRAD.:    13.543 HEAT:  435.8037
 CYCLE:   186 TIME:   0.031 TIME LEFT:  2.00D  GRAD.:     7.746 HEAT:  435.6950
 CYCLE:   187 TIME:   0.031 TIME LEFT:  2.00D  GRAD.:    12.353 HEAT:  435.5739
 CYCLE:   188 TIME:   0.031 TIME LEFT:  2.00D  GRAD.:    11.047 HEAT:  435.4041
 CYCLE:   189 TIME:   0.039 TIME LEFT:  2.00D  GRAD.:    19.909 HEAT:  435.2104
 CYCLE:   190 TIME:   0.031 TIME LEFT:  2.00D  GRAD.:    17.618 HEAT:  435.0469
 CYCLE:   191 TIME:   0.047 TIME LEFT:  2.00D  GRAD.:     9.966 HEAT:  434.9553
 CYCLE:   192 TIME:   0.031 TIME LEFT:  2.00D  GRAD.:    18.247 HEAT:  434.9280
 CYCLE:   193 TIME:   0.031 TIME LEFT:  2.00D  GRAD.:    11.953 HEAT:  434.7910
 CYCLE:   194 TIME:   0.039 TIME LEFT:  2.00D  GRAD.:    10.629 HEAT:  434.7028
 CYCLE:   195 TIME:   0.039 TIME LEFT:  2.00D  GRAD.:     8.304 HEAT:  434.6262
 CYCLE:   196 TIME:   0.031 TIME LEFT:  2.00D  GRAD.:    11.221 HEAT:  434.5546
 CYCLE:   197 TIME:   0.039 TIME LEFT:  2.00D  GRAD.:     7.691 HEAT:  434.4818
 CYCLE:   198 TIME:   0.031 TIME LEFT:  2.00D  GRAD.:     7.581 HEAT:  434.4211
 CYCLE:   199 TIME:   0.031 TIME LEFT:  2.00D  GRAD.:    13.792 HEAT:  434.3386
 CYCLE:   200 TIME:   0.031 TIME LEFT:  2.00D  GRAD.:     9.972 HEAT:  434.2554
 CYCLE:   201 TIME:   0.031 TIME LEFT:  2.00D  GRAD.:     7.891 HEAT:  434.1917
 CYCLE:   202 TIME:   0.031 TIME LEFT:  2.00D  GRAD.:    11.241 HEAT:  434.0903
 CYCLE:   203 TIME:   0.031 TIME LEFT:  2.00D  GRAD.:    17.622 HEAT:  434.0721
 CYCLE:   204 TIME:   0.031 TIME LEFT:  2.00D  GRAD.:    10.530 HEAT:  433.9615
 CYCLE:   205 TIME:   0.031 TIME LEFT:  2.00D  GRAD.:    12.366 HEAT:  433.8982
 CYCLE:   206 TIME:   0.031 TIME LEFT:  2.00D  GRAD.:    10.575 HEAT:  433.8230
 CYCLE:   207 TIME:   0.031 TIME LEFT:  2.00D  GRAD.:    16.675 HEAT:  433.7326
 CYCLE:   208 TIME:   0.031 TIME LEFT:  2.00D  GRAD.:     9.234 HEAT:  433.6314
 CYCLE:   209 TIME:   0.031 TIME LEFT:  2.00D  GRAD.:     6.829 HEAT:  433.5536
 CYCLE:   210 TIME:   0.031 TIME LEFT:  2.00D  GRAD.:     8.899 HEAT:  433.4980
 CYCLE:   211 TIME:   0.031 TIME LEFT:  2.00D  GRAD.:    13.407 HEAT:  433.4246
 CYCLE:   212 TIME:   0.031 TIME LEFT:  2.00D  GRAD.:     7.310 HEAT:  433.3416
 CYCLE:   213 TIME:   0.031 TIME LEFT:  2.00D  GRAD.:     7.239 HEAT:  433.3004
 CYCLE:   214 TIME:   0.023 TIME LEFT:  2.00D  GRAD.:     8.401 HEAT:  433.2558
 CYCLE:   215 TIME:   0.031 TIME LEFT:  2.00D  GRAD.:    14.513 HEAT:  433.1795
 CYCLE:   216 TIME:   0.031 TIME LEFT:  2.00D  GRAD.:     9.591 HEAT:  433.0766
 CYCLE:   217 TIME:   0.031 TIME LEFT:  2.00D  GRAD.:     7.355 HEAT:  432.9880
 CYCLE:   218 TIME:   0.031 TIME LEFT:  2.00D  GRAD.:     9.390 HEAT:  432.9096
 CYCLE:   219 TIME:   0.031 TIME LEFT:  2.00D  GRAD.:    14.520 HEAT:  432.8564
 CYCLE:   220 TIME:   0.031 TIME LEFT:  2.00D  GRAD.:    10.988 HEAT:  432.7789
 CYCLE:   221 TIME:   0.031 TIME LEFT:  2.00D  GRAD.:    15.729 HEAT:  432.7245
 CYCLE:   222 TIME:   0.039 TIME LEFT:  2.00D  GRAD.:     8.095 HEAT:  432.6494
 CYCLE:   223 TIME:   0.031 TIME LEFT:  2.00D  GRAD.:     6.927 HEAT:  432.5964
 CYCLE:   224 TIME:   0.023 TIME LEFT:  2.00D  GRAD.:     8.242 HEAT:  432.5370
 CYCLE:   225 TIME:   0.031 TIME LEFT:  2.00D  GRAD.:    11.530 HEAT:  432.4538
 CYCLE:   226 TIME:   0.031 TIME LEFT:  2.00D  GRAD.:     9.336 HEAT:  432.3707
 CYCLE:   227 TIME:   0.031 TIME LEFT:  2.00D  GRAD.:     9.999 HEAT:  432.3014
 CYCLE:   228 TIME:   0.031 TIME LEFT:  2.00D  GRAD.:     6.773 HEAT:  432.2296
 CYCLE:   229 TIME:   0.031 TIME LEFT:  2.00D  GRAD.:     7.902 HEAT:  432.1745
 CYCLE:   230 TIME:   0.031 TIME LEFT:  2.00D  GRAD.:     8.912 HEAT:  432.1185
 CYCLE:   231 TIME:   0.031 TIME LEFT:  2.00D  GRAD.:     7.995 HEAT:  432.0573
 CYCLE:   232 TIME:   0.031 TIME LEFT:  2.00D  GRAD.:     9.951 HEAT:  431.9938
 CYCLE:   233 TIME:   0.031 TIME LEFT:  2.00D  GRAD.:    10.836 HEAT:  431.9487
 CYCLE:   234 TIME:   0.031 TIME LEFT:  2.00D  GRAD.:     6.705 HEAT:  431.8988
 CYCLE:   235 TIME:   0.023 TIME LEFT:  2.00D  GRAD.:     6.478 HEAT:  431.8562
 CYCLE:   236 TIME:   0.031 TIME LEFT:  2.00D  GRAD.:    10.059 HEAT:  431.7975
 CYCLE:   237 TIME:   0.031 TIME LEFT:  2.00D  GRAD.:    11.603 HEAT:  431.7142
 CYCLE:   238 TIME:   0.031 TIME LEFT:  2.00D  GRAD.:     8.858 HEAT:  431.6157
 CYCLE:   239 TIME:   0.031 TIME LEFT:  2.00D  GRAD.:     8.854 HEAT:  431.5175
 CYCLE:   240 TIME:   0.031 TIME LEFT:  2.00D  GRAD.:    22.146 HEAT:  431.4353
 CYCLE:   241 TIME:   0.031 TIME LEFT:  2.00D  GRAD.:    25.744 HEAT:  431.3533
 CYCLE:   242 TIME:   0.031 TIME LEFT:  2.00D  GRAD.:    10.134 HEAT:  431.1943
 CYCLE:   243 TIME:   0.023 TIME LEFT:  2.00D  GRAD.:     7.866 HEAT:  431.1132
 CYCLE:   244 TIME:   0.031 TIME LEFT:  2.00D  GRAD.:    12.297 HEAT:  431.0329
 CYCLE:   245 TIME:   0.031 TIME LEFT:  2.00D  GRAD.:    13.950 HEAT:  430.9186
 CYCLE:   246 TIME:   0.031 TIME LEFT:  2.00D  GRAD.:    20.203 HEAT:  430.8362
 CYCLE:   247 TIME:   0.031 TIME LEFT:  2.00D  GRAD.:     9.166 HEAT:  430.7124
 CYCLE:   248 TIME:   0.031 TIME LEFT:  2.00D  GRAD.:     8.110 HEAT:  430.6528
 CYCLE:   249 TIME:   0.031 TIME LEFT:  2.00D  GRAD.:     8.177 HEAT:  430.5761
 CYCLE:   250 TIME:   0.023 TIME LEFT:  2.00D  GRAD.:    16.219 HEAT:  430.4878
 CYCLE:   251 TIME:   0.031 TIME LEFT:  2.00D  GRAD.:     9.457 HEAT:  430.3896
 CYCLE:   252 TIME:   0.031 TIME LEFT:  2.00D  GRAD.:     6.542 HEAT:  430.3516
 CYCLE:   253 TIME:   0.031 TIME LEFT:  2.00D  GRAD.:     5.711 HEAT:  430.2902
 CYCLE:   254 TIME:   0.031 TIME LEFT:  2.00D  GRAD.:    10.311 HEAT:  430.2319
 CYCLE:   255 TIME:   0.031 TIME LEFT:  2.00D  GRAD.:    10.557 HEAT:  430.1872
 CYCLE:   256 TIME:   0.023 TIME LEFT:  2.00D  GRAD.:     5.709 HEAT:  430.1446
 CYCLE:   257 TIME:   0.031 TIME LEFT:  2.00D  GRAD.:     5.801 HEAT:  430.1017
 CYCLE:   258 TIME:   0.039 TIME LEFT:  2.00D  GRAD.:    10.601 HEAT:  430.0805
 CYCLE:   259 TIME:   0.031 TIME LEFT:  2.00D  GRAD.:     5.227 HEAT:  430.0394
 CYCLE:   260 TIME:   0.117 TIME LEFT:  2.00D  GRAD.:     5.548 HEAT:  430.0079
 CYCLE:   261 TIME:   0.039 TIME LEFT:  2.00D  GRAD.:     8.825 HEAT:  429.9798
 CYCLE:   262 TIME:   0.039 TIME LEFT:  2.00D  GRAD.:     7.677 HEAT:  429.9304
 CYCLE:   263 TIME:   0.039 TIME LEFT:  2.00D  GRAD.:     9.264 HEAT:  429.8418
 CYCLE:   264 TIME:   0.031 TIME LEFT:  2.00D  GRAD.:    15.962 HEAT:  429.7766
 CYCLE:   265 TIME:   0.039 TIME LEFT:  2.00D  GRAD.:     7.540 HEAT:  429.7041
 CYCLE:   266 TIME:   0.031 TIME LEFT:  2.00D  GRAD.:     7.807 HEAT:  429.6405
 CYCLE:   267 TIME:   0.031 TIME LEFT:  2.00D  GRAD.:     8.511 HEAT:  429.5651
 CYCLE:   268 TIME:   0.039 TIME LEFT:  2.00D  GRAD.:    11.729 HEAT:  429.5328
 CYCLE:   269 TIME:   0.031 TIME LEFT:  2.00D  GRAD.:     6.046 HEAT:  429.4809
 CYCLE:   270 TIME:   0.023 TIME LEFT:  2.00D  GRAD.:     5.021 HEAT:  429.4449
 CYCLE:   271 TIME:   0.031 TIME LEFT:  2.00D  GRAD.:     5.104 HEAT:  429.4072
 CYCLE:   272 TIME:   0.039 TIME LEFT:  2.00D  GRAD.:    16.110 HEAT:  429.4026
 CYCLE:   273 TIME:   0.031 TIME LEFT:  2.00D  GRAD.:     5.188 HEAT:  429.3497
 CYCLE:   274 TIME:   0.031 TIME LEFT:  2.00D  GRAD.:     4.314 HEAT:  429.3316
 CYCLE:   275 TIME:   0.031 TIME LEFT:  2.00D  GRAD.:     6.170 HEAT:  429.3051
 CYCLE:   276 TIME:   0.031 TIME LEFT:  2.00D  GRAD.:     9.562 HEAT:  429.2657
 CYCLE:   277 TIME:   0.031 TIME LEFT:  2.00D  GRAD.:     9.877 HEAT:  429.2162
 CYCLE:   278 TIME:   0.031 TIME LEFT:  2.00D  GRAD.:     7.361 HEAT:  429.1580
 CYCLE:   279 TIME:   0.031 TIME LEFT:  2.00D  GRAD.:     8.360 HEAT:  429.0666
 CYCLE:   280 TIME:   0.031 TIME LEFT:  2.00D  GRAD.:    14.749 HEAT:  429.0200
 CYCLE:   281 TIME:   0.047 TIME LEFT:  2.00D  GRAD.:     8.038 HEAT:  428.9674
 CYCLE:   282 TIME:   0.031 TIME LEFT:  2.00D  GRAD.:     6.449 HEAT:  428.9163
 CYCLE:   283 TIME:   0.039 TIME LEFT:  2.00D  GRAD.:     7.930 HEAT:  428.8828
 CYCLE:   284 TIME:   0.031 TIME LEFT:  2.00D  GRAD.:    12.356 HEAT:  428.8252
 CYCLE:   285 TIME:   0.031 TIME LEFT:  2.00D  GRAD.:     7.464 HEAT:  428.7544
 CYCLE:   286 TIME:   0.031 TIME LEFT:  2.00D  GRAD.:     5.812 HEAT:  428.7081
 CYCLE:   287 TIME:   0.031 TIME LEFT:  2.00D  GRAD.:     6.766 HEAT:  428.6544
 CYCLE:   288 TIME:   0.023 TIME LEFT:  2.00D  GRAD.:    11.047 HEAT:  428.6076
 CYCLE:   289 TIME:   0.031 TIME LEFT:  2.00D  GRAD.:     6.934 HEAT:  428.5573
 CYCLE:   290 TIME:   0.031 TIME LEFT:  2.00D  GRAD.:     6.601 HEAT:  428.5038
 CYCLE:   291 TIME:   0.031 TIME LEFT:  2.00D  GRAD.:     7.142 HEAT:  428.4694
 CYCLE:   292 TIME:   0.031 TIME LEFT:  2.00D  GRAD.:     6.828 HEAT:  428.4225
 CYCLE:   293 TIME:   0.031 TIME LEFT:  2.00D  GRAD.:     9.319 HEAT:  428.3843
 CYCLE:   294 TIME:   0.031 TIME LEFT:  2.00D  GRAD.:     5.615 HEAT:  428.3482
 CYCLE:   295 TIME:   0.023 TIME LEFT:  2.00D  GRAD.:     5.727 HEAT:  428.3174
 CYCLE:   296 TIME:   0.031 TIME LEFT:  2.00D  GRAD.:     8.061 HEAT:  428.2826
 CYCLE:   297 TIME:   0.031 TIME LEFT:  2.00D  GRAD.:     7.044 HEAT:  428.2462
 CYCLE:   298 TIME:   0.031 TIME LEFT:  2.00D  GRAD.:     4.962 HEAT:  428.2157
 CYCLE:   299 TIME:   0.039 TIME LEFT:  2.00D  GRAD.:     6.288 HEAT:  428.1876
 CYCLE:   300 TIME:   0.031 TIME LEFT:  2.00D  GRAD.:     6.814 HEAT:  428.1680
 CYCLE:   301 TIME:   0.023 TIME LEFT:  2.00D  GRAD.:     4.223 HEAT:  428.1497
 CYCLE:   302 TIME:   0.031 TIME LEFT:  2.00D  GRAD.:     3.536 HEAT:  428.1289
 CYCLE:   303 TIME:   0.031 TIME LEFT:  2.00D  GRAD.:     4.138 HEAT:  428.1181
 CYCLE:   304 TIME:   0.031 TIME LEFT:  2.00D  GRAD.:     3.132 HEAT:  428.1045
 CYCLE:   305 TIME:   0.031 TIME LEFT:  2.00D  GRAD.:     3.287 HEAT:  428.0904
 CYCLE:   306 TIME:   0.031 TIME LEFT:  2.00D  GRAD.:     4.455 HEAT:  428.0793
 CYCLE:   307 TIME:   0.023 TIME LEFT:  2.00D  GRAD.:     3.169 HEAT:  428.0681
 CYCLE:   308 TIME:   0.031 TIME LEFT:  2.00D  GRAD.:     3.075 HEAT:  428.0555
 CYCLE:   309 TIME:   0.031 TIME LEFT:  2.00D  GRAD.:     4.834 HEAT:  428.0434
 CYCLE:   310 TIME:   0.031 TIME LEFT:  2.00D  GRAD.:     3.656 HEAT:  428.0296
 CYCLE:   311 TIME:   0.023 TIME LEFT:  2.00D  GRAD.:     3.827 HEAT:  428.0167
 CYCLE:   312 TIME:   0.031 TIME LEFT:  2.00D  GRAD.:     4.962 HEAT:  428.0016
 CYCLE:   313 TIME:   0.031 TIME LEFT:  2.00D  GRAD.:     4.718 HEAT:  427.9835
 CYCLE:   314 TIME:   0.031 TIME LEFT:  2.00D  GRAD.:     4.614 HEAT:  427.9573
 CYCLE:   315 TIME:   0.031 TIME LEFT:  2.00D  GRAD.:    10.418 HEAT:  427.9397
 CYCLE:   316 TIME:   0.117 TIME LEFT:  2.00D  GRAD.:     5.098 HEAT:  427.9113
 CYCLE:   317 TIME:   0.039 TIME LEFT:  2.00D  GRAD.:     3.736 HEAT:  427.8888
 CYCLE:   318 TIME:   0.039 TIME LEFT:  2.00D  GRAD.:     4.385 HEAT:  427.8695
 CYCLE:   319 TIME:   0.039 TIME LEFT:  2.00D  GRAD.:     6.620 HEAT:  427.8405
 CYCLE:   320 TIME:   0.039 TIME LEFT:  2.00D  GRAD.:     5.384 HEAT:  427.8120
 CYCLE:   321 TIME:   0.039 TIME LEFT:  2.00D  GRAD.:     9.402 HEAT:  427.7888
 CYCLE:   322 TIME:   0.031 TIME LEFT:  2.00D  GRAD.:     5.468 HEAT:  427.7562
 CYCLE:   323 TIME:   0.031 TIME LEFT:  2.00D  GRAD.:     5.703 HEAT:  427.7206
 CYCLE:   324 TIME:   0.031 TIME LEFT:  2.00D  GRAD.:     6.445 HEAT:  427.6863
 CYCLE:   325 TIME:   0.031 TIME LEFT:  2.00D  GRAD.:     6.650 HEAT:  427.6417
 CYCLE:   326 TIME:   0.031 TIME LEFT:  2.00D  GRAD.:    15.146 HEAT:  427.5965
 CYCLE:   327 TIME:   0.039 TIME LEFT:  2.00D  GRAD.:     7.482 HEAT:  427.5248
 CYCLE:   328 TIME:   0.023 TIME LEFT:  2.00D  GRAD.:     6.246 HEAT:  427.4774
 CYCLE:   329 TIME:   0.031 TIME LEFT:  2.00D  GRAD.:     7.042 HEAT:  427.4384
 CYCLE:   330 TIME:   0.047 TIME LEFT:  2.00D  GRAD.:     7.185 HEAT:  427.3821
 CYCLE:   331 TIME:   0.031 TIME LEFT:  2.00D  GRAD.:     9.045 HEAT:  427.3420
 CYCLE:   332 TIME:   0.031 TIME LEFT:  2.00D  GRAD.:     7.938 HEAT:  427.2998
 CYCLE:   333 TIME:   0.047 TIME LEFT:  2.00D  GRAD.:     8.368 HEAT:  427.2585
 CYCLE:   334 TIME:   0.031 TIME LEFT:  2.00D  GRAD.:     6.823 HEAT:  427.1785
 CYCLE:   335 TIME:   0.031 TIME LEFT:  2.00D  GRAD.:     8.190 HEAT:  427.1065
 CYCLE:   336 TIME:   0.039 TIME LEFT:  2.00D  GRAD.:     9.466 HEAT:  427.0546
 CYCLE:   337 TIME:   0.023 TIME LEFT:  2.00D  GRAD.:     5.915 HEAT:  427.0061
 CYCLE:   338 TIME:   0.031 TIME LEFT:  2.00D  GRAD.:     5.296 HEAT:  426.9683
 CYCLE:   339 TIME:   0.031 TIME LEFT:  2.00D  GRAD.:     6.497 HEAT:  426.9446
 CYCLE:   340 TIME:   0.031 TIME LEFT:  2.00D  GRAD.:     4.373 HEAT:  426.9208
 CYCLE:   341 TIME:   0.039 TIME LEFT:  2.00D  GRAD.:     5.680 HEAT:  426.8994
 CYCLE:   342 TIME:   0.039 TIME LEFT:  2.00D  GRAD.:     4.119 HEAT:  426.8801
 CYCLE:   343 TIME:   0.031 TIME LEFT:  2.00D  GRAD.:     4.292 HEAT:  426.8583
 CYCLE:   344 TIME:   0.039 TIME LEFT:  2.00D  GRAD.:     5.666 HEAT:  426.8309
 CYCLE:   345 TIME:   0.039 TIME LEFT:  2.00D  GRAD.:     6.299 HEAT:  426.8115
 CYCLE:   346 TIME:   0.039 TIME LEFT:  2.00D  GRAD.:     5.869 HEAT:  426.7874
 CYCLE:   347 TIME:   0.031 TIME LEFT:  2.00D  GRAD.:     5.384 HEAT:  426.7605
 CYCLE:   348 TIME:   0.039 TIME LEFT:  2.00D  GRAD.:     6.686 HEAT:  426.7139
 CYCLE:   349 TIME:   0.039 TIME LEFT:  2.00D  GRAD.:    13.872 HEAT:  426.6760
 CYCLE:   350 TIME:   0.039 TIME LEFT:  2.00D  GRAD.:     8.880 HEAT:  426.6235
 CYCLE:   351 TIME:   0.039 TIME LEFT:  2.00D  GRAD.:    11.145 HEAT:  426.5932
 CYCLE:   352 TIME:   0.055 TIME LEFT:  2.00D  GRAD.:     9.185 HEAT:  426.5377
 CYCLE:   353 TIME:   0.039 TIME LEFT:  2.00D  GRAD.:    10.241 HEAT:  426.4979
 CYCLE:   354 TIME:   0.047 TIME LEFT:  2.00D  GRAD.:     7.939 HEAT:  426.4364
 CYCLE:   355 TIME:   0.039 TIME LEFT:  2.00D  GRAD.:    10.488 HEAT:  426.3378
 CYCLE:   356 TIME:   0.031 TIME LEFT:  2.00D  GRAD.:     9.352 HEAT:  426.2226
 CYCLE:   357 TIME:   0.039 TIME LEFT:  2.00D  GRAD.:    14.262 HEAT:  426.1498
 CYCLE:   358 TIME:   0.039 TIME LEFT:  2.00D  GRAD.:    13.636 HEAT:  426.0267
 CYCLE:   359 TIME:   0.055 TIME LEFT:  2.00D  GRAD.:     8.647 HEAT:  425.9613
 CYCLE:   360 TIME:   0.047 TIME LEFT:  2.00D  GRAD.:     8.070 HEAT:  425.9172
 CYCLE:   361 TIME:   0.047 TIME LEFT:  2.00D  GRAD.:    14.287 HEAT:  425.8226
 CYCLE:   362 TIME:   0.039 TIME LEFT:  2.00D  GRAD.:    34.162 HEAT:  426.2884
 CYCLE:   363 TIME:   0.039 TIME LEFT:  2.00D  GRAD.:    18.733 HEAT:  425.6966
 CYCLE:   364 TIME:   0.070 TIME LEFT:  2.00D  GRAD.:    11.776 HEAT:  425.6321
 CYCLE:   365 TIME:   0.055 TIME LEFT:  2.00D  GRAD.:     6.350 HEAT:  425.5884
 CYCLE:   366 TIME:   0.039 TIME LEFT:  2.00D  GRAD.:     6.868 HEAT:  425.5373
 CYCLE:   367 TIME:   0.031 TIME LEFT:  2.00D  GRAD.:     9.203 HEAT:  425.4406
 CYCLE:   368 TIME:   0.031 TIME LEFT:  2.00D  GRAD.:    14.802 HEAT:  425.3441
 CYCLE:   369 TIME:   0.039 TIME LEFT:  2.00D  GRAD.:    14.772 HEAT:  425.1624
 CYCLE:   370 TIME:   0.031 TIME LEFT:  2.00D  GRAD.:    33.086 HEAT:  425.5202
 CYCLE:   371 TIME:   0.031 TIME LEFT:  2.00D  GRAD.:    12.978 HEAT:  424.9648
 CYCLE:   372 TIME:   0.031 TIME LEFT:  2.00D  GRAD.:    16.725 HEAT:  424.9364
 CYCLE:   373 TIME:   0.031 TIME LEFT:  2.00D  GRAD.:     8.024 HEAT:  424.8381
 CYCLE:   374 TIME:   0.031 TIME LEFT:  2.00D  GRAD.:     9.572 HEAT:  424.7743
 CYCLE:   375 TIME:   0.031 TIME LEFT:  2.00D  GRAD.:    14.031 HEAT:  424.7075
 CYCLE:   376 TIME:   0.055 TIME LEFT:  2.00D  GRAD.:    13.209 HEAT:  424.6304
 CYCLE:   377 TIME:   0.031 TIME LEFT:  2.00D  GRAD.:     7.553 HEAT:  424.5703
 CYCLE:   378 TIME:   0.055 TIME LEFT:  2.00D  GRAD.:     7.899 HEAT:  424.5275
 CYCLE:   379 TIME:   0.039 TIME LEFT:  2.00D  GRAD.:    10.053 HEAT:  424.4669
 CYCLE:   380 TIME:   0.031 TIME LEFT:  2.00D  GRAD.:    21.205 HEAT:  424.4314
 CYCLE:   381 TIME:   0.031 TIME LEFT:  2.00D  GRAD.:     8.482 HEAT:  424.3427
 CYCLE:   382 TIME:   0.039 TIME LEFT:  2.00D  GRAD.:     9.259 HEAT:  424.2859
 CYCLE:   383 TIME:   0.047 TIME LEFT:  2.00D  GRAD.:    12.637 HEAT:  424.2298
 CYCLE:   384 TIME:   0.039 TIME LEFT:  2.00D  GRAD.:    10.080 HEAT:  424.1683
 CYCLE:   385 TIME:   0.055 TIME LEFT:  2.00D  GRAD.:     8.413 HEAT:  424.0940
 CYCLE:   386 TIME:   0.062 TIME LEFT:  2.00D  GRAD.:     7.751 HEAT:  424.0536
 CYCLE:   387 TIME:   0.047 TIME LEFT:  2.00D  GRAD.:     7.805 HEAT:  424.0023
 CYCLE:   388 TIME:   0.039 TIME LEFT:  2.00D  GRAD.:    19.024 HEAT:  423.9926
 CYCLE:   389 TIME:   0.039 TIME LEFT:  2.00D  GRAD.:    10.341 HEAT:  423.9100
 CYCLE:   390 TIME:   0.023 TIME LEFT:  2.00D  GRAD.:    14.258 HEAT:  423.9045
 CYCLE:   391 TIME:   0.039 TIME LEFT:  2.00D  GRAD.:     3.916 HEAT:  423.8542
 CYCLE:   392 TIME:   0.031 TIME LEFT:  2.00D  GRAD.:     6.146 HEAT:  423.8365
 CYCLE:   393 TIME:   0.031 TIME LEFT:  2.00D  GRAD.:     5.294 HEAT:  423.8078
 CYCLE:   394 TIME:   0.039 TIME LEFT:  2.00D  GRAD.:     8.980 HEAT:  423.7375
 CYCLE:   395 TIME:   0.047 TIME LEFT:  2.00D  GRAD.:    20.296 HEAT:  423.7550
 CYCLE:   396 TIME:   0.117 TIME LEFT:  2.00D  GRAD.:     6.404 HEAT:  423.6802
 CYCLE:   397 TIME:   0.039 TIME LEFT:  2.00D  GRAD.:     4.913 HEAT:  423.6523
 CYCLE:   398 TIME:   0.039 TIME LEFT:  2.00D  GRAD.:     4.974 HEAT:  423.6078
 CYCLE:   399 TIME:   0.039 TIME LEFT:  2.00D  GRAD.:    13.224 HEAT:  423.5660
 CYCLE:   400 TIME:   0.031 TIME LEFT:  2.00D  GRAD.:    17.901 HEAT:  423.5441
 CYCLE:   401 TIME:   0.039 TIME LEFT:  2.00D  GRAD.:     4.668 HEAT:  423.4970
 CYCLE:   402 TIME:   0.031 TIME LEFT:  2.00D  GRAD.:     4.416 HEAT:  423.4753
 CYCLE:   403 TIME:   0.023 TIME LEFT:  2.00D  GRAD.:     4.794 HEAT:  423.4403
 CYCLE:   404 TIME:   0.047 TIME LEFT:  2.00D  GRAD.:     9.598 HEAT:  423.4110
 CYCLE:   405 TIME:   0.039 TIME LEFT:  2.00D  GRAD.:     6.208 HEAT:  423.3751
 CYCLE:   406 TIME:   0.023 TIME LEFT:  2.00D  GRAD.:     4.493 HEAT:  423.3526
 CYCLE:   407 TIME:   0.047 TIME LEFT:  2.00D  GRAD.:     7.501 HEAT:  423.3189
 CYCLE:   408 TIME:   0.039 TIME LEFT:  2.00D  GRAD.:    19.922 HEAT:  423.3315
 CYCLE:   409 TIME:   0.047 TIME LEFT:  2.00D  GRAD.:     6.018 HEAT:  423.2446
 CYCLE:   410 TIME:   0.039 TIME LEFT:  2.00D  GRAD.:     4.124 HEAT:  423.2270
 CYCLE:   411 TIME:   0.039 TIME LEFT:  2.00D  GRAD.:     5.275 HEAT:  423.1951
 CYCLE:   412 TIME:   0.039 TIME LEFT:  2.00D  GRAD.:     8.063 HEAT:  423.1545
 CYCLE:   413 TIME:   0.047 TIME LEFT:  2.00D  GRAD.:    11.688 HEAT:  423.1140
 CYCLE:   414 TIME:   0.039 TIME LEFT:  2.00D  GRAD.:     6.212 HEAT:  423.0678
 CYCLE:   415 TIME:   0.055 TIME LEFT:  2.00D  GRAD.:     8.414 HEAT:  423.0317
 CYCLE:   416 TIME:   0.055 TIME LEFT:  2.00D  GRAD.:    13.094 HEAT:  422.9715
 CYCLE:   417 TIME:   0.039 TIME LEFT:  2.00D  GRAD.:     7.126 HEAT:  422.9123
 CYCLE:   418 TIME:   0.039 TIME LEFT:  2.00D  GRAD.:     7.870 HEAT:  422.8763
 CYCLE:   419 TIME:   0.039 TIME LEFT:  2.00D  GRAD.:     7.816 HEAT:  422.8197
 CYCLE:   420 TIME:   0.039 TIME LEFT:  2.00D  GRAD.:     9.706 HEAT:  422.7509
 CYCLE:   421 TIME:   0.031 TIME LEFT:  2.00D  GRAD.:     6.996 HEAT:  422.6925
 CYCLE:   422 TIME:   0.031 TIME LEFT:  2.00D  GRAD.:     6.287 HEAT:  422.6544
 CYCLE:   423 TIME:   0.031 TIME LEFT:  2.00D  GRAD.:     8.684 HEAT:  422.6029
 CYCLE:   424 TIME:   0.031 TIME LEFT:  2.00D  GRAD.:     9.666 HEAT:  422.5736
 CYCLE:   425 TIME:   0.039 TIME LEFT:  2.00D  GRAD.:     9.053 HEAT:  422.5578
 CYCLE:   426 TIME:   0.039 TIME LEFT:  2.00D  GRAD.:     8.766 HEAT:  422.5006
 CYCLE:   427 TIME:   0.031 TIME LEFT:  2.00D  GRAD.:     6.175 HEAT:  422.4609
 CYCLE:   428 TIME:   0.047 TIME LEFT:  2.00D  GRAD.:     7.590 HEAT:  422.4313
 CYCLE:   429 TIME:   0.031 TIME LEFT:  2.00D  GRAD.:     9.485 HEAT:  422.3812
 CYCLE:   430 TIME:   0.039 TIME LEFT:  2.00D  GRAD.:     5.389 HEAT:  422.3366
 CYCLE:   431 TIME:   0.031 TIME LEFT:  2.00D  GRAD.:     5.570 HEAT:  422.2996
 CYCLE:   432 TIME:   0.031 TIME LEFT:  2.00D  GRAD.:     7.117 HEAT:  422.2679
 CYCLE:   433 TIME:   0.023 TIME LEFT:  2.00D  GRAD.:    10.075 HEAT:  422.2173
 CYCLE:   434 TIME:   0.031 TIME LEFT:  2.00D  GRAD.:     6.830 HEAT:  422.1561
 CYCLE:   435 TIME:   0.039 TIME LEFT:  2.00D  GRAD.:     7.435 HEAT:  422.1106
 CYCLE:   436 TIME:   0.023 TIME LEFT:  2.00D  GRAD.:     7.643 HEAT:  422.0687
 CYCLE:   437 TIME:   0.031 TIME LEFT:  2.00D  GRAD.:    11.665 HEAT:  422.0561
 CYCLE:   438 TIME:   0.031 TIME LEFT:  2.00D  GRAD.:     6.739 HEAT:  421.9993
 CYCLE:   439 TIME:   0.031 TIME LEFT:  2.00D  GRAD.:     5.025 HEAT:  421.9792
 CYCLE:   440 TIME:   0.023 TIME LEFT:  2.00D  GRAD.:     4.776 HEAT:  421.9565
 CYCLE:   441 TIME:   0.039 TIME LEFT:  2.00D  GRAD.:     6.650 HEAT:  421.9146
 CYCLE:   442 TIME:   0.039 TIME LEFT:  2.00D  GRAD.:    13.493 HEAT:  421.9081
 CYCLE:   443 TIME:   0.031 TIME LEFT:  2.00D  GRAD.:     5.814 HEAT:  421.8594
 CYCLE:   444 TIME:   0.039 TIME LEFT:  2.00D  GRAD.:     5.137 HEAT:  421.8403
 CYCLE:   445 TIME:   0.047 TIME LEFT:  2.00D  GRAD.:     4.384 HEAT:  421.8177
 CYCLE:   446 TIME:   0.031 TIME LEFT:  2.00D  GRAD.:     7.448 HEAT:  421.7814
 CYCLE:   447 TIME:   0.031 TIME LEFT:  2.00D  GRAD.:    16.787 HEAT:  421.7738
 CYCLE:   448 TIME:   0.031 TIME LEFT:  2.00D  GRAD.:     4.921 HEAT:  421.7168
 CYCLE:   449 TIME:   0.039 TIME LEFT:  2.00D  GRAD.:     4.982 HEAT:  421.6947
 CYCLE:   450 TIME:   0.047 TIME LEFT:  2.00D  GRAD.:     6.112 HEAT:  421.6649
 CYCLE:   451 TIME:   0.031 TIME LEFT:  2.00D  GRAD.:     6.370 HEAT:  421.6282
 CYCLE:   452 TIME:   0.039 TIME LEFT:  2.00D  GRAD.:     7.371 HEAT:  421.5886
 CYCLE:   453 TIME:   0.031 TIME LEFT:  2.00D  GRAD.:     7.914 HEAT:  421.5663
 CYCLE:   454 TIME:   0.031 TIME LEFT:  2.00D  GRAD.:     4.261 HEAT:  421.5410
 CYCLE:   455 TIME:   0.031 TIME LEFT:  2.00D  GRAD.:     4.457 HEAT:  421.5216
 CYCLE:   456 TIME:   0.031 TIME LEFT:  2.00D  GRAD.:     6.080 HEAT:  421.5005
 CYCLE:   457 TIME:   0.031 TIME LEFT:  2.00D  GRAD.:     7.161 HEAT:  421.4766
 CYCLE:   458 TIME:   0.055 TIME LEFT:  2.00D  GRAD.:     8.738 HEAT:  421.4453
 CYCLE:   459 TIME:   0.047 TIME LEFT:  2.00D  GRAD.:     7.484 HEAT:  421.4024
 CYCLE:   460 TIME:   0.039 TIME LEFT:  2.00D  GRAD.:     6.556 HEAT:  421.3675
 CYCLE:   461 TIME:   0.039 TIME LEFT:  2.00D  GRAD.:    11.131 HEAT:  421.3239
 CYCLE:   462 TIME:   0.031 TIME LEFT:  2.00D  GRAD.:     7.909 HEAT:  421.2798
 CYCLE:   463 TIME:   0.062 TIME LEFT:  2.00D  GRAD.:     5.324 HEAT:  421.2523
 CYCLE:   464 TIME:   0.031 TIME LEFT:  2.00D  GRAD.:     7.091 HEAT:  421.2296
 CYCLE:   465 TIME:   0.031 TIME LEFT:  2.00D  GRAD.:     8.373 HEAT:  421.1984
 CYCLE:   466 TIME:   0.039 TIME LEFT:  2.00D  GRAD.:     5.430 HEAT:  421.1509
 CYCLE:   467 TIME:   0.031 TIME LEFT:  2.00D  GRAD.:     7.396 HEAT:  421.1064
 CYCLE:   468 TIME:   0.039 TIME LEFT:  2.00D  GRAD.:     6.280 HEAT:  421.0783
 CYCLE:   469 TIME:   0.031 TIME LEFT:  2.00D  GRAD.:     8.141 HEAT:  421.0427
 CYCLE:   470 TIME:   0.039 TIME LEFT:  2.00D  GRAD.:     8.122 HEAT:  420.9743
 CYCLE:   471 TIME:   0.031 TIME LEFT:  2.00D  GRAD.:     8.118 HEAT:  420.8929
 CYCLE:   472 TIME:   0.031 TIME LEFT:  2.00D  GRAD.:    12.004 HEAT:  420.8147
 CYCLE:   473 TIME:   0.031 TIME LEFT:  2.00D  GRAD.:     9.037 HEAT:  420.6922
 CYCLE:   474 TIME:   0.031 TIME LEFT:  2.00D  GRAD.:    17.739 HEAT:  420.6476
 CYCLE:   475 TIME:   0.039 TIME LEFT:  2.00D  GRAD.:    11.014 HEAT:  420.5761
 CYCLE:   476 TIME:   0.031 TIME LEFT:  2.00D  GRAD.:    13.811 HEAT:  420.5137
 CYCLE:   477 TIME:   0.031 TIME LEFT:  2.00D  GRAD.:     6.233 HEAT:  420.4560
 CYCLE:   478 TIME:   0.039 TIME LEFT:  2.00D  GRAD.:     8.984 HEAT:  420.3980
 CYCLE:   479 TIME:   0.031 TIME LEFT:  2.00D  GRAD.:    11.688 HEAT:  420.3157
 CYCLE:   480 TIME:   0.031 TIME LEFT:  2.00D  GRAD.:    14.216 HEAT:  420.1891
 CYCLE:   481 TIME:   0.039 TIME LEFT:  2.00D  GRAD.:    11.536 HEAT:  420.0786
 CYCLE:   482 TIME:   0.039 TIME LEFT:  2.00D  GRAD.:     8.222 HEAT:  420.0078
 CYCLE:   483 TIME:   0.039 TIME LEFT:  2.00D  GRAD.:    14.385 HEAT:  419.9536
 CYCLE:   484 TIME:   0.031 TIME LEFT:  2.00D  GRAD.:    17.775 HEAT:  419.8907
 CYCLE:   485 TIME:   0.023 TIME LEFT:  2.00D  GRAD.:     9.372 HEAT:  419.7988
 CYCLE:   486 TIME:   0.031 TIME LEFT:  2.00D  GRAD.:     9.348 HEAT:  419.7048
 CYCLE:   487 TIME:   0.031 TIME LEFT:  2.00D  GRAD.:    10.692 HEAT:  419.6355
 CYCLE:   488 TIME:   0.039 TIME LEFT:  2.00D  GRAD.:    14.453 HEAT:  419.5057
 CYCLE:   489 TIME:   0.031 TIME LEFT:  2.00D  GRAD.:    18.726 HEAT:  419.4296
 CYCLE:   490 TIME:   0.039 TIME LEFT:  2.00D  GRAD.:     7.234 HEAT:  419.3420
 CYCLE:   491 TIME:   0.031 TIME LEFT:  2.00D  GRAD.:     6.684 HEAT:  419.3017
 CYCLE:   492 TIME:   0.031 TIME LEFT:  2.00D  GRAD.:     8.844 HEAT:  419.2503
 CYCLE:   493 TIME:   0.031 TIME LEFT:  2.00D  GRAD.:     6.963 HEAT:  419.1848
 CYCLE:   494 TIME:   0.023 TIME LEFT:  2.00D  GRAD.:    13.949 HEAT:  419.1750
 CYCLE:   495 TIME:   0.031 TIME LEFT:  2.00D  GRAD.:     3.926 HEAT:  419.1272
 CYCLE:   496 TIME:   0.031 TIME LEFT:  2.00D  GRAD.:     3.153 HEAT:  419.1183
 CYCLE:   497 TIME:   0.031 TIME LEFT:  2.00D  GRAD.:     4.030 HEAT:  419.0999
 CYCLE:   498 TIME:   0.031 TIME LEFT:  2.00D  GRAD.:     4.841 HEAT:  419.0798
 CYCLE:   499 TIME:   0.031 TIME LEFT:  2.00D  GRAD.:     3.719 HEAT:  419.0678
 CYCLE:   500 TIME:   0.031 TIME LEFT:  2.00D  GRAD.:     2.917 HEAT:  419.0590
 CYCLE:   501 TIME:   0.023 TIME LEFT:  2.00D  GRAD.:     3.445 HEAT:  419.0464
 CYCLE:   502 TIME:   0.039 TIME LEFT:  2.00D  GRAD.:     4.850 HEAT:  419.0355
 CYCLE:   503 TIME:   0.023 TIME LEFT:  2.00D  GRAD.:     4.286 HEAT:  419.0229
 CYCLE:   504 TIME:   0.031 TIME LEFT:  2.00D  GRAD.:     7.199 HEAT:  419.0219
 CYCLE:   505 TIME:   0.031 TIME LEFT:  2.00D  GRAD.:     2.489 HEAT:  419.0066
 CYCLE:   506 TIME:   0.031 TIME LEFT:  2.00D  GRAD.:     3.753 HEAT:  419.0015
 CYCLE:   507 TIME:   0.031 TIME LEFT:  2.00D  GRAD.:     3.844 HEAT:  418.9917
 CYCLE:   508 TIME:   0.023 TIME LEFT:  2.00D  GRAD.:     3.247 HEAT:  418.9763
 CYCLE:   509 TIME:   0.031 TIME LEFT:  2.00D  GRAD.:     3.688 HEAT:  418.9596
 CYCLE:   510 TIME:   0.031 TIME LEFT:  2.00D  GRAD.:     4.283 HEAT:  418.9428
 CYCLE:   511 TIME:   0.031 TIME LEFT:  2.00D  GRAD.:     7.893 HEAT:  418.9275
 CYCLE:   512 TIME:   0.031 TIME LEFT:  2.00D  GRAD.:     3.554 HEAT:  418.9118
 CYCLE:   513 TIME:   0.031 TIME LEFT:  2.00D  GRAD.:     2.714 HEAT:  418.9019
 CYCLE:   514 TIME:   0.039 TIME LEFT:  2.00D  GRAD.:     3.193 HEAT:  418.8930
 CYCLE:   515 TIME:   0.047 TIME LEFT:  2.00D  GRAD.:     5.647 HEAT:  418.8860
 CYCLE:   516 TIME:   0.086 TIME LEFT:  2.00D  GRAD.:     4.428 HEAT:  418.8721
 CYCLE:   517 TIME:   0.062 TIME LEFT:  2.00D  GRAD.:     2.294 HEAT:  418.8635
 CYCLE:   518 TIME:   0.031 TIME LEFT:  2.00D  GRAD.:     2.351 HEAT:  418.8560
 CYCLE:   519 TIME:   0.031 TIME LEFT:  2.00D  GRAD.:     3.030 HEAT:  418.8482
 CYCLE:   520 TIME:   0.031 TIME LEFT:  2.00D  GRAD.:     7.329 HEAT:  418.8462
 CYCLE:   521 TIME:   0.031 TIME LEFT:  2.00D  GRAD.:     2.622 HEAT:  418.8339
 CYCLE:   522 TIME:   0.023 TIME LEFT:  2.00D  GRAD.:     2.149 HEAT:  418.8292
 CYCLE:   523 TIME:   0.031 TIME LEFT:  2.00D  GRAD.:     2.999 HEAT:  418.8223
 CYCLE:   524 TIME:   0.031 TIME LEFT:  2.00D  GRAD.:     6.030 HEAT:  418.8126
 CYCLE:   525 TIME:   0.031 TIME LEFT:  2.00D  GRAD.:     6.329 HEAT:  418.8031
 CYCLE:   526 TIME:   0.031 TIME LEFT:  2.00D  GRAD.:     3.471 HEAT:  418.7928
 CYCLE:   527 TIME:   0.031 TIME LEFT:  2.00D  GRAD.:     2.743 HEAT:  418.7819
 CYCLE:   528 TIME:   0.031 TIME LEFT:  2.00D  GRAD.:     3.867 HEAT:  418.7721
 CYCLE:   529 TIME:   0.031 TIME LEFT:  2.00D  GRAD.:     6.674 HEAT:  418.7575
 CYCLE:   530 TIME:   0.031 TIME LEFT:  2.00D  GRAD.:     4.734 HEAT:  418.7403
 CYCLE:   531 TIME:   0.031 TIME LEFT:  2.00D  GRAD.:     3.146 HEAT:  418.7266
 CYCLE:   532 TIME:   0.047 TIME LEFT:  2.00D  GRAD.:     4.533 HEAT:  418.7137
 CYCLE:   533 TIME:   0.031 TIME LEFT:  2.00D  GRAD.:     5.423 HEAT:  418.7008
 CYCLE:   534 TIME:   0.031 TIME LEFT:  2.00D  GRAD.:     5.278 HEAT:  418.6784
 CYCLE:   535 TIME:   0.023 TIME LEFT:  2.00D  GRAD.:     8.523 HEAT:  418.6571
 CYCLE:   536 TIME:   0.062 TIME LEFT:  2.00D  GRAD.:     5.570 HEAT:  418.6193
 CYCLE:   537 TIME:   0.039 TIME LEFT:  2.00D  GRAD.:     3.975 HEAT:  418.5955
 CYCLE:   538 TIME:   0.031 TIME LEFT:  2.00D  GRAD.:     6.261 HEAT:  418.5738
 CYCLE:   539 TIME:   0.023 TIME LEFT:  2.00D  GRAD.:     6.097 HEAT:  418.5550
 CYCLE:   540 TIME:   0.031 TIME LEFT:  2.00D  GRAD.:     2.903 HEAT:  418.5376
 CYCLE:   541 TIME:   0.031 TIME LEFT:  2.00D  GRAD.:     5.193 HEAT:  418.5188
 CYCLE:   542 TIME:   0.031 TIME LEFT:  2.00D  GRAD.:     3.942 HEAT:  418.5051
 CYCLE:   543 TIME:   0.031 TIME LEFT:  2.00D  GRAD.:     2.648 HEAT:  418.4935
 CYCLE:   544 TIME:   0.031 TIME LEFT:  2.00D  GRAD.:     4.266 HEAT:  418.4850
 CYCLE:   545 TIME:   0.031 TIME LEFT:  2.00D  GRAD.:     3.081 HEAT:  418.4757
 CYCLE:   546 TIME:   0.055 TIME LEFT:  2.00D  GRAD.:     2.906 HEAT:  418.4673
 CYCLE:   547 TIME:   0.055 TIME LEFT:  2.00D  GRAD.:     3.821 HEAT:  418.4601
 CYCLE:   548 TIME:   0.031 TIME LEFT:  2.00D  GRAD.:     2.256 HEAT:  418.4531
 CYCLE:   549 TIME:   0.031 TIME LEFT:  2.00D  GRAD.:     1.877 HEAT:  418.4498
 CYCLE:   550 TIME:   0.031 TIME LEFT:  2.00D  GRAD.:     2.269 HEAT:  418.4440
 CYCLE:   551 TIME:   0.023 TIME LEFT:  2.00D  GRAD.:     3.365 HEAT:  418.4396
 CYCLE:   552 TIME:   0.031 TIME LEFT:  2.00D  GRAD.:     1.649 HEAT:  418.4361
 CYCLE:   553 TIME:   0.031 TIME LEFT:  2.00D  GRAD.:     1.270 HEAT:  418.4347
 CYCLE:   554 TIME:   0.031 TIME LEFT:  2.00D  GRAD.:     1.367 HEAT:  418.4330
 CYCLE:   555 TIME:   0.031 TIME LEFT:  2.00D  GRAD.:     1.292 HEAT:  418.4310
 CYCLE:   556 TIME:   0.031 TIME LEFT:  2.00D  GRAD.:     1.401 HEAT:  418.4299
 CYCLE:   557 TIME:   0.031 TIME LEFT:  2.00D  GRAD.:     0.821 HEAT:  418.4291

 -------------------------------------------------------------------------------
 AUX LARGE CHARGE=2 SINGLET  PM6
 CPM_P2



     HERBERTS TEST WAS SATISFIED IN BFGS                      
     SCF FIELD WAS ACHIEVED                                   


                              PM6 CALCULATION
                                                       MOPAC2016 (Version: 20.225L)
                                                       Sun Jan 31 20:56:26 2021
                                                       No. of days remaining = 194




          FINAL HEAT OF FORMATION =        418.42912 KCAL/MOL =    1750.70744 KJ/MOL


          TOTAL ENERGY            =      -2814.11645 EV
          ELECTRONIC ENERGY       =     -16757.69404 EV  POINT GROUP:     C1  
          CORE-CORE REPULSION     =      13943.57759 EV
          COSMO AREA              =        346.00 SQUARE ANGSTROMS
          COSMO VOLUME            =        362.05 CUBIC ANGSTROMS

          GRADIENT NORM           =          0.82089 = 0.13317 PER ATOM
          IONIZATION POTENTIAL    =         13.290999 EV
          HOMO LUMO ENERGIES (EV) =        -13.291 -7.479
          NO. OF FILLED LEVELS    =         49
          MOLECULAR WEIGHT        =        274.7925

          MOLECULAR DIMENSIONS (Angstroms)

            Atom       Atom       Distance
            H    31    H    24    32.53383
            H    26    H    36     8.57459
            H    25    H    22     4.99075


          SCF CALCULATIONS        =        558
 
          WALL-CLOCK TIME         =         43.742 SECONDS
          COMPUTATION TIME        =  8 MINUTES AND 35.882 SECONDS




   ATOM   CHEMICAL          X               Y               Z
  NUMBER   SYMBOL      (ANGSTROMS)     (ANGSTROMS)     (ANGSTROMS)
 
     1       C         13.33755916  *   1.24313594  *  -6.10415035  *
     2       C         14.16680750  *   1.67629975  *  -4.95795412  *
     3       C         14.37337796  *   3.11972534  *  -4.83747251  *
     4       C         13.82466948  *   3.99151295  *  -5.75189080  *
     5       C         13.05177192  *   3.47547446  *  -6.81859004  *
     6       N         12.82550033  *   2.13993125  *  -6.96998237  *
     7      Cl         15.30035187  *   3.71076510  *  -3.55996607  *
     8       C         13.04474058  *  -0.18749038  *  -6.39875127  *
     9       C         12.45684506  *  -0.96215036  *  -5.24827170  *
    10       C         12.98798400  *  -2.21643925  *  -4.91583607  *
    11       C         12.41530758  *  -2.95814870  *  -3.87831635  *
    12       C         11.32078555  *  -2.45041758  *  -3.17141984  *
    13       C         10.78891638  *  -1.20191226  *  -3.51034900  *
    14       C         11.35177850  *  -0.45570097  *  -4.54953603  *
    15       C         14.70170337  *   0.79453127  *  -4.07332678  *
    16       C         -1.15649545  * -15.76135289  *  13.10593598  *
    17       N         -0.07452625  * -15.20484073  *  13.55365722  *
    18       C          1.13939674  * -15.98140790  *  13.86508450  *
    19       C          0.02742300  * -13.75051279  *  13.77533614  *
    20       H         12.32658115  *  -0.27130838  *  -7.26835877  *
    21       H         13.96650897  *  -0.68143847  *  -6.79876794  *
    22       H         15.31124848  *   1.08754008  *  -3.21257409  *
    23       H         14.56215871  *  -0.29160729  *  -4.14955027  *
    24       H         13.97939896  *   5.07859656  *  -5.66815700  *
    25       H         12.59249023  *   4.13694923  *  -7.58131272  *
    26       H         13.82297367  *  -2.63609017  *  -5.47614793  *
    27       H         10.90764159  *   0.49875540  *  -4.82758054  *
    28       H         12.81766032  *  -3.94234268  *  -3.62800831  *
    29       H         10.87286709  *  -3.03482077  *  -2.36529682  *
    30       H          9.92239974  *  -0.81496334  *  -2.96974740  *
    31       H         -1.25375919  * -16.84651771  *  12.92458834  *
    32       H         -2.07700950  * -15.20000685  *  12.86625322  *
    33       H          1.38900048  * -15.92885597  *  14.94957098  *
    34       H          1.05044291  * -17.05834479  *  13.61088372  *
    35       H          2.02573241  * -15.59345074  *  13.31437989  *
    36       H          0.50621149  * -13.51309473  *  14.75176433  *
    37       H          0.64908678  * -13.26588635  *  12.98838924  *
    38       H         -0.95639187  * -13.23599507  *  13.77236061  *

                             CARTESIAN COORDINATES

   1    C       13.337559156     1.243135935    -6.104150349
   2    C       14.166807496     1.676299746    -4.957954125
   3    C       14.373377960     3.119725340    -4.837472510
   4    C       13.824669476     3.991512952    -5.751890798
   5    C       13.051771917     3.475474465    -6.818590042
   6    N       12.825500334     2.139931251    -6.969982370
   7   Cl       15.300351874     3.710765104    -3.559966075
   8    C       13.044740584    -0.187490384    -6.398751273
   9    C       12.456845057    -0.962150356    -5.248271705
  10    C       12.987984003    -2.216439251    -4.915836068
  11    C       12.415307576    -2.958148700    -3.878316346
  12    C       11.320785552    -2.450417584    -3.171419836
  13    C       10.788916383    -1.201912255    -3.510349002
  14    C       11.351778498    -0.455700970    -4.549536035
  15    C       14.701703367     0.794531274    -4.073326779
  16    C       -1.156495450   -15.761352887    13.105935975
  17    N       -0.074526253   -15.204840729    13.553657217
  18    C        1.139396739   -15.981407896    13.865084496
  19    C        0.027422998   -13.750512789    13.775336143
  20    H       12.326581149    -0.271308382    -7.268358771
  21    H       13.966508966    -0.681438474    -6.798767941
  22    H       15.311248475     1.087540080    -3.212574090
  23    H       14.562158709    -0.291607293    -4.149550266
  24    H       13.979398963     5.078596564    -5.668157003
  25    H       12.592490231     4.136949232    -7.581312717
  26    H       13.822973674    -2.636090168    -5.476147934
  27    H       10.907641586     0.498755400    -4.827580545
  28    H       12.817660320    -3.942342684    -3.628008307
  29    H       10.872867088    -3.034820774    -2.365296816
  30    H        9.922399737    -0.814963344    -2.969747403
  31    H       -1.253759188   -16.846517707    12.924588336
  32    H       -2.077009495   -15.200006847    12.866253219
  33    H        1.389000483   -15.928855972    14.949570978
  34    H        1.050442911   -17.058344790    13.610883723
  35    H        2.025732408   -15.593450740    13.314379887
  36    H        0.506211490   -13.513094728    14.751764332
  37    H        0.649086783   -13.265886353    12.988389243
  38    H       -0.956391867   -13.235995070    13.772360607


           Empirical Formula: C16 H19 N2 Cl  =    38 atoms



      MOLECULAR POINT GROUP   :   C1  


                  EIGENVALUES  
 -39.20249 -37.79000 -34.33893 -34.02413 -33.19903 -32.09733 -31.61531 -31.53079
 -30.86450 -29.93655 -29.63507 -28.25914 -27.15367 -26.58219 -26.31442 -25.13324
 -24.33568 -23.51616 -23.28703 -22.95696 -22.45034 -22.38327 -21.62812 -21.15743
 -20.28485 -19.79922 -19.69986 -19.69648 -19.60827 -19.57917 -19.50187 -19.32928
 -19.21865 -18.97595 -18.60756 -18.15216 -17.93847 -17.66933 -17.62538 -17.37599
 -16.71819 -16.46831 -16.08679 -15.81946 -15.63705 -15.49836 -15.16720 -13.44637
 -13.29100  -7.47939  -6.26010  -5.28145  -5.01039  -4.89196  -4.47934  -3.55881
  -3.40180  -3.24233  -2.60819  -2.47000  -2.43300  -2.29275  -1.68380  -1.65126
  -1.30831  -1.06759  -0.95773  -0.87185  -0.77809  -0.72489  -0.58849  -0.55113
  -0.53303  -0.51122  -0.38211  -0.08885  -0.02459   0.02807   0.20284   0.30429
   0.37657   0.50603   0.83334   0.90417   0.91934   1.26112   1.31215   1.51769
   1.58799   1.88908   2.14226   2.35274   2.65095   2.66011   2.78574  80.44509
  80.50675  80.52052  81.12009  81.13378


              NET ATOMIC CHARGES AND DIPOLE CONTRIBUTIONS

  ATOM NO.   TYPE          CHARGE      No. of ELECS.   s-Pop       p-Pop       d-Pop       
    1          C           0.472568        3.5274     1.13366     2.39377
    2          C          -0.330265        4.3303     1.10734     3.22293
    3          C           0.251710        3.7483     1.12411     2.62418
    4          C          -0.416377        4.4164     1.12355     3.29283
    5          C           0.319290        3.6807     1.14765     2.53306
    6          N          -0.414358        5.4144     1.71480     3.69956
    7         Cl           0.086084        6.9139     1.99027     4.91556     0.00809
    8          C          -0.402076        4.4021     1.09680     3.30528
    9          C           0.031361        3.9686     1.08095     2.88769
   10          C          -0.211804        4.2118     1.10993     3.10187
   11          C          -0.094347        4.0943     1.10972     2.98463
   12          C          -0.146022        4.1460     1.11230     3.03372
   13          C          -0.095173        4.0952     1.10941     2.98576
   14          C          -0.207668        4.2077     1.10857     3.09910
   15          C           0.083983        3.9160     1.16572     2.75030
   16          C          -0.143379        4.1434     1.15960     2.98378
   17          N           0.236777        4.7632     1.39874     3.36448
   18          C          -0.436111        4.4361     1.10772     3.32840
   19          C          -0.436109        4.4361     1.10762     3.32849
   20          H           0.237516        0.7625     0.76248
   21          H           0.210231        0.7898     0.78977
   22          H           0.179214        0.8208     0.82079
   23          H           0.191569        0.8084     0.80843
   24          H           0.239953        0.7600     0.76005
   25          H           0.205008        0.7950     0.79499
   26          H           0.161169        0.8388     0.83883
   27          H           0.158072        0.8419     0.84193
   28          H           0.162366        0.8376     0.83763
   29          H           0.167008        0.8330     0.83299
   30          H           0.160988        0.8390     0.83901
   31          H           0.228719        0.7713     0.77128
   32          H           0.228409        0.7716     0.77159
   33          H           0.223963        0.7760     0.77604
   34          H           0.214861        0.7851     0.78514
   35          H           0.222510        0.7775     0.77749
   36          H           0.222797        0.7772     0.77720
   37          H           0.222500        0.7775     0.77750
   38          H           0.215062        0.7849     0.78494
 DIPOLE           X         Y         Z       TOTAL
 POINT-CHG.   -34.537   -42.291    50.143    74.133
 HYBRID         0.708     0.537     0.596     1.071
 SUM          -33.829   -41.754    50.740    73.907


          ATOMIC ORBITAL ELECTRON POPULATIONS

     Atom    s        px        py        pz      x^2-y^2     xz        z^2       yz        xy
    1  C   1.13366   0.68754   0.94131   0.76492
    2  C   1.10734   1.13581   0.99902   1.08810
    3  C   1.12411   0.82282   0.92548   0.87588
    4  C   1.12355   1.10627   1.13999   1.04657
    5  C   1.14765   0.73570   0.91269   0.88466
    6  N   1.71480   1.28768   1.08835   1.32353
    7 Cl   1.99027   1.63107   1.86467   1.41982   0.00102   0.00274   0.00159   0.00172   0.00102
    8  C   1.09680   1.19759   0.97042   1.13728
    9  C   1.08095   0.98274   0.96592   0.93903
   10  C   1.10993   1.06887   0.99750   1.03549
   11  C   1.10972   0.97712   1.04487   0.96264
   12  C   1.11230   0.99340   1.00400   1.03632
   13  C   1.10941   1.02387   0.97838   0.98351
   14  C   1.10857   1.00660   1.07480   1.01771
   15  C   1.16572   0.74181   1.10116   0.90732
   16  C   1.15960   0.97765   1.15796   0.84817
   17  N   1.39874   1.08327   1.08916   1.19205
   18  C   1.10772   0.97367   1.13325   1.22148
   19  C   1.10762   1.24213   0.85550   1.23086
   20  H   0.76248
   21  H   0.78977
   22  H   0.82079
   23  H   0.80843
   24  H   0.76005
   25  H   0.79499
   26  H   0.83883
   27  H   0.84193
   28  H   0.83763
   29  H   0.83299
   30  H   0.83901
   31  H   0.77128
   32  H   0.77159
   33  H   0.77604
   34  H   0.78514
   35  H   0.77749
   36  H   0.77720
   37  H   0.77750
   38  H   0.78494

 **********************
 *                    *
 * JOB ENDED NORMALLY *
 *                    *
 **********************



 TOTAL JOB TIME:            43.75 SECONDS

 == MOPAC DONE ==
