 *******************************************************************************
 ** Site#: 30659        For non-commercial use only    Version 20.225L 64BITS **
 *******************************************************************************
 ** Cite this program as: MOPAC2016, Version: 20.225L, James J. P. Stewart,   **
 ** Stewart Computational Chemistry, web: HTTP://OpenMOPAC.net. Days left: 194**
 *******************************************************************************
 **                                                                           **
 **                                MOPAC2016                                  **
 **                                                                           **
 *******************************************************************************

                              PM6 CALCULATION RESULTS

 *******************************************************************************
 *  CALCULATION DONE:                                Sun Jan 31 17:53:56 2021  *
 *  PM6        - The PM6 Hamiltonian to be used
 *  SINGLET    - SPIN STATE DEFINED AS A SINGLET
 *
 *
 *
 *                 CHARGE ON SYSTEM = 0
 *
 *
 *
 *  T=         - A TIME OF 172800.0 SECONDS REQUESTED
 *  DUMP=N     - RESTART FILE WRITTEN EVERY 7200.0 SECONDS REQUESTED
 *  AUX        - OUTPUT AUXILIARY INFORMATION
 *  LARGE      - EXPANDED OUTPUT TO BE PRINTED
 *******************************************************************************
 AUX LARGE CHARGE=0 SINGLET  PM6
 malat

   ATOM   CHEMICAL          X               Y               Z
  NUMBER   SYMBOL      (ANGSTROMS)     (ANGSTROMS)     (ANGSTROMS)
 
     1       C          9.61713000  *  -3.49127000  *  -0.26456000  *
     2       C          8.21747000  *  -3.44579000  *   0.00230000  *
     3       C          7.63696000  *  -2.16609000  *   0.23067000  *
     4       C          8.41523000  *  -1.01263000  *   0.18402000  *
     5       C          9.76630000  *  -1.11020000  *  -0.09735000  *
     6       N         10.32177000  *  -2.32413000  *  -0.31242000  *
     7      Cl          5.92003000  *  -1.92965000  *   0.54926000  *
     8       C         10.43475000  *  -4.74491000  *  -0.48777000  *
     9       C         11.58032000  *  -4.88323000  *   0.50769000  *
    10       C         12.61049000  *  -5.79864000  *   0.22713000  *
    11       C         13.70187000  *  -5.93166000  *   1.09358000  *
    12       C         13.77313000  *  -5.16299000  *   2.25726000  *
    13       C         12.75246000  *  -4.26233000  *   2.56004000  *
    14       C         11.66462000  *  -4.11921000  *   1.69600000  *
    15       C          7.30178000  *  -4.66432000  *   0.01416000  *
    16       C          6.75156000  *  -4.98251000  *   1.42040000  *
    17       N          5.41831000  *  -5.61703000  *   1.33371000  *
    18       C          5.46917000  *  -7.02271000  *   0.90665000  *
    19       C          4.69678000  *  -5.49807000  *   2.61068000  *
    20       C          2.74781000  *  -0.43009000  *  -0.48768000  *
    21       C          2.62567000  *  -1.91098000  *  -0.36842000  *
    22       C          3.15346000  *  -2.88331000  *  -1.14851000  *
    23       C          3.98128000  *  -2.76570000  *  -2.37772000  *
    24       O          3.45697000  *   0.09742000  *  -1.32183000  *
    25       O          4.39492000  *  -3.79110000  *  -2.89788000  *
    26       O          4.26363000  *  -1.58234000  *  -2.95556000  *
    27       H          9.85806000  *  -5.68686000  *  -0.47942000  *
    28       H         10.87293000  *  -4.63562000  *  -1.50382000  *
    29       H          6.46308000  *  -4.40810000  *  -0.66941000  *
    30       H          7.74535000  *  -5.58426000  *  -0.40767000  *
    31       H          7.96977000  *  -0.04077000  *   0.35413000  *
    32       H         10.37889000  *  -0.22048000  *  -0.14462000  *
    33       H         12.57897000  *  -6.39696000  *  -0.67490000  *
    34       H         10.89544000  *  -3.41076000  *   1.97117000  *
    35       H         14.49695000  *  -6.62778000  *   0.86051000  *
    36       H         14.61843000  *  -5.26451000  *   2.92569000  *
    37       H         12.80420000  *  -3.66921000  *   3.46442000  *
    38       H          7.47941000  *  -5.58822000  *   2.00723000  *
    39       H          6.63982000  *  -4.03023000  *   1.97498000  *
    40       H          5.93640000  *  -7.66473000  *   1.68472000  *
    41       H          4.43558000  *  -7.38591000  *   0.71306000  *
    42       H          6.02754000  *  -7.13104000  *  -0.04496000  *
    43       H          5.23131000  *  -6.03433000  *   3.42541000  *
    44       H          4.59015000  *  -4.42758000  *   2.89345000  *
    45       H          3.66772000  *  -5.90437000  *   2.51111000  *
    46       H          2.03367000  *  -2.25634000  *   0.47428000  *
    47       H          2.93932000  *  -3.90314000  *  -0.83742000  *
    48       H          4.78281000  *  -1.52442000  *  -3.77017000  *
    49       O          2.07368000  *   0.36194000  *   0.37487000  *
    50       H          1.49104000  *   0.00071000  *   1.05661000  *
 


          CARTESIAN COORDINATES 

    NO.       ATOM           X           Y           Z

     1         C          9.6171     -3.4913     -0.2646
     2         C          8.2175     -3.4458      0.0023
     3         C          7.6370     -2.1661      0.2307
     4         C          8.4152     -1.0126      0.1840
     5         C          9.7663     -1.1102     -0.0973
     6         N         10.3218     -2.3241     -0.3124
     7        Cl          5.9200     -1.9297      0.5493
     8         C         10.4347     -4.7449     -0.4878
     9         C         11.5803     -4.8832      0.5077
    10         C         12.6105     -5.7986      0.2271
    11         C         13.7019     -5.9317      1.0936
    12         C         13.7731     -5.1630      2.2573
    13         C         12.7525     -4.2623      2.5600
    14         C         11.6646     -4.1192      1.6960
    15         C          7.3018     -4.6643      0.0142
    16         C          6.7516     -4.9825      1.4204
    17         N          5.4183     -5.6170      1.3337
    18         C          5.4692     -7.0227      0.9067
    19         C          4.6968     -5.4981      2.6107
    20         C          2.7478     -0.4301     -0.4877
    21         C          2.6257     -1.9110     -0.3684
    22         C          3.1535     -2.8833     -1.1485
    23         C          3.9813     -2.7657     -2.3777
    24         O          3.4570      0.0974     -1.3218
    25         O          4.3949     -3.7911     -2.8979
    26         O          4.2636     -1.5823     -2.9556
    27         H          9.8581     -5.6869     -0.4794
    28         H         10.8729     -4.6356     -1.5038
    29         H          6.4631     -4.4081     -0.6694
    30         H          7.7454     -5.5843     -0.4077
    31         H          7.9698     -0.0408      0.3541
    32         H         10.3789     -0.2205     -0.1446
    33         H         12.5790     -6.3970     -0.6749
    34         H         10.8954     -3.4108      1.9712
    35         H         14.4970     -6.6278      0.8605
    36         H         14.6184     -5.2645      2.9257
    37         H         12.8042     -3.6692      3.4644
    38         H          7.4794     -5.5882      2.0072
    39         H          6.6398     -4.0302      1.9750
    40         H          5.9364     -7.6647      1.6847
    41         H          4.4356     -7.3859      0.7131
    42         H          6.0275     -7.1310     -0.0450
    43         H          5.2313     -6.0343      3.4254
    44         H          4.5901     -4.4276      2.8935
    45         H          3.6677     -5.9044      2.5111
    46         H          2.0337     -2.2563      0.4743
    47         H          2.9393     -3.9031     -0.8374
    48         H          4.7828     -1.5244     -3.7702
    49         O          2.0737      0.3619      0.3749
    50         H          1.4910      0.0007      1.0566

 General Reference for PM6:
 "Optimization of Parameters for Semiempirical Methods V: Modification of NDDO Approximations
 and Application to 70 Elements", J. J. P. Stewart, J. Mol. Mod., 13, 1173-1213 (2007)
 URL: https://link.springer.com/article/10.1007/s00894-007-0233-4

           Empirical Formula: C20 H23 N2 O4 Cl  =    50 atoms



      MOLECULAR POINT GROUP   :   C1  


 SINGLET STATE CALCULATION


      RHF CALCULATION, NO. OF DOUBLY OCCUPIED LEVELS = 72


          Geometry optimization using L-BFGS
 CYCLE:     1 TIME:   0.109 TIME LEFT:  2.00D  GRAD.:   137.847 HEAT: -95.83870
 CYCLE:     2 TIME:   0.070 TIME LEFT:  2.00D  GRAD.:   135.512 HEAT: -96.02718
 CYCLE:     3 TIME:   0.074 TIME LEFT:  2.00D  GRAD.:    44.048 HEAT: -103.5967
 CYCLE:     4 TIME:   0.113 TIME LEFT:  2.00D  GRAD.:   135.644 HEAT: -96.02835
 CYCLE:     5 TIME:   0.062 TIME LEFT:  2.00D  GRAD.:    44.015 HEAT: -103.5995
 CYCLE:     6 TIME:   0.051 TIME LEFT:  2.00D  GRAD.:    38.165 HEAT: -104.6545
 CYCLE:     7 TIME:   0.055 TIME LEFT:  2.00D  GRAD.:    45.455 HEAT: -105.9932
 CYCLE:     8 TIME:   0.059 TIME LEFT:  2.00D  GRAD.:    38.339 HEAT: -106.8063
 CYCLE:     9 TIME:   0.059 TIME LEFT:  2.00D  GRAD.:    22.507 HEAT: -107.2046
 CYCLE:    10 TIME:   0.051 TIME LEFT:  2.00D  GRAD.:    19.022 HEAT: -107.5724
 CYCLE:    11 TIME:   0.055 TIME LEFT:  2.00D  GRAD.:    22.456 HEAT: -107.8157
 CYCLE:    12 TIME:   0.055 TIME LEFT:  2.00D  GRAD.:    17.933 HEAT: -108.1318
 CYCLE:    13 TIME:   0.051 TIME LEFT:  2.00D  GRAD.:    19.942 HEAT: -108.4507
 CYCLE:    14 TIME:   0.055 TIME LEFT:  2.00D  GRAD.:    20.260 HEAT: -108.6531
 CYCLE:    15 TIME:   0.047 TIME LEFT:  2.00D  GRAD.:    13.261 HEAT: -108.8235
 CYCLE:    16 TIME:   0.051 TIME LEFT:  2.00D  GRAD.:    12.806 HEAT: -109.0473
 CYCLE:    17 TIME:   0.055 TIME LEFT:  2.00D  GRAD.:    18.249 HEAT: -109.2523
 CYCLE:    18 TIME:   0.055 TIME LEFT:  2.00D  GRAD.:    23.577 HEAT: -109.3780
 CYCLE:    19 TIME:   0.051 TIME LEFT:  2.00D  GRAD.:     8.673 HEAT: -109.5091
 CYCLE:    20 TIME:   0.055 TIME LEFT:  2.00D  GRAD.:     8.483 HEAT: -109.5611
 CYCLE:    21 TIME:   0.051 TIME LEFT:  2.00D  GRAD.:     9.745 HEAT: -109.6455
 CYCLE:    22 TIME:   0.055 TIME LEFT:  2.00D  GRAD.:    15.760 HEAT: -109.7442
 CYCLE:    23 TIME:   0.051 TIME LEFT:  2.00D  GRAD.:    10.112 HEAT: -109.8195
 CYCLE:    24 TIME:   0.055 TIME LEFT:  2.00D  GRAD.:     6.568 HEAT: -109.8657
 CYCLE:    25 TIME:   0.055 TIME LEFT:  2.00D  GRAD.:     8.263 HEAT: -109.9213
 CYCLE:    26 TIME:   0.051 TIME LEFT:  2.00D  GRAD.:    12.403 HEAT: -109.9791
 CYCLE:    27 TIME:   0.051 TIME LEFT:  2.00D  GRAD.:    10.192 HEAT: -110.0689
 CYCLE:    28 TIME:   0.055 TIME LEFT:  2.00D  GRAD.:    18.239 HEAT: -110.1608
 CYCLE:    29 TIME:   0.055 TIME LEFT:  2.00D  GRAD.:    11.283 HEAT: -110.2330
 CYCLE:    30 TIME:   0.055 TIME LEFT:  2.00D  GRAD.:     6.634 HEAT: -110.2755
 CYCLE:    31 TIME:   0.066 TIME LEFT:  2.00D  GRAD.:     6.032 HEAT: -110.3230
 CYCLE:    32 TIME:   0.055 TIME LEFT:  2.00D  GRAD.:     7.537 HEAT: -110.3814
 CYCLE:    33 TIME:   0.062 TIME LEFT:  2.00D  GRAD.:    22.103 HEAT: -110.3919
 CYCLE:    34 TIME:   0.062 TIME LEFT:  2.00D  GRAD.:     6.856 HEAT: -110.4802
 CYCLE:    35 TIME:   0.059 TIME LEFT:  2.00D  GRAD.:     5.002 HEAT: -110.5076
 CYCLE:    36 TIME:   0.059 TIME LEFT:  2.00D  GRAD.:     6.559 HEAT: -110.5456
 CYCLE:    37 TIME:   0.051 TIME LEFT:  2.00D  GRAD.:     9.782 HEAT: -110.5991
 CYCLE:    38 TIME:   0.051 TIME LEFT:  2.00D  GRAD.:    12.788 HEAT: -110.6560
 CYCLE:    39 TIME:   0.051 TIME LEFT:  2.00D  GRAD.:     7.376 HEAT: -110.7204
 CYCLE:    40 TIME:   0.055 TIME LEFT:  2.00D  GRAD.:     8.804 HEAT: -110.7916
 CYCLE:    41 TIME:   0.055 TIME LEFT:  2.00D  GRAD.:    10.346 HEAT: -110.8350
 CYCLE:    42 TIME:   0.051 TIME LEFT:  2.00D  GRAD.:     8.783 HEAT: -110.9148
 CYCLE:    43 TIME:   0.055 TIME LEFT:  2.00D  GRAD.:    15.499 HEAT: -111.0035
 CYCLE:    44 TIME:   0.051 TIME LEFT:  2.00D  GRAD.:    12.385 HEAT: -111.1323
 CYCLE:    45 TIME:   0.051 TIME LEFT:  2.00D  GRAD.:    13.256 HEAT: -111.2799
 CYCLE:    46 TIME:   0.055 TIME LEFT:  2.00D  GRAD.:    18.421 HEAT: -111.4922
 CYCLE:    47 TIME:   0.055 TIME LEFT:  2.00D  GRAD.:    20.061 HEAT: -111.6870
 CYCLE:    48 TIME:   0.055 TIME LEFT:  2.00D  GRAD.:    28.885 HEAT: -111.9304
 CYCLE:    49 TIME:   0.062 TIME LEFT:  2.00D  GRAD.:    37.446 HEAT: -112.2091
 CYCLE:    50 TIME:   0.055 TIME LEFT:  2.00D  GRAD.:    30.038 HEAT: -112.5460
 CYCLE:    51 TIME:   0.055 TIME LEFT:  2.00D  GRAD.:    78.086 HEAT: -111.8672
 CYCLE:    52 TIME:   0.055 TIME LEFT:  2.00D  GRAD.:    26.443 HEAT: -113.0308
 CYCLE:    53 TIME:   0.051 TIME LEFT:  2.00D  GRAD.:    48.671 HEAT: -112.3537
 CYCLE:    54 TIME:   0.055 TIME LEFT:  2.00D  GRAD.:    15.543 HEAT: -113.2789
 CYCLE:    55 TIME:   0.055 TIME LEFT:  2.00D  GRAD.:    14.599 HEAT: -113.3497
 CYCLE:    56 TIME:   0.051 TIME LEFT:  2.00D  GRAD.:    15.176 HEAT: -113.4620
 CYCLE:    57 TIME:   0.055 TIME LEFT:  2.00D  GRAD.:    18.851 HEAT: -113.7403
 CYCLE:    58 TIME:   0.051 TIME LEFT:  2.00D  GRAD.:    28.821 HEAT: -113.7786
 CYCLE:    59 TIME:   0.051 TIME LEFT:  2.00D  GRAD.:     9.986 HEAT: -113.9144
 CYCLE:    60 TIME:   0.055 TIME LEFT:  2.00D  GRAD.:     9.205 HEAT: -113.9730
 CYCLE:    61 TIME:   0.055 TIME LEFT:  2.00D  GRAD.:    15.076 HEAT: -114.1129
 CYCLE:    62 TIME:   0.051 TIME LEFT:  2.00D  GRAD.:    16.767 HEAT: -114.3182
 CYCLE:    63 TIME:   0.055 TIME LEFT:  2.00D  GRAD.:    53.151 HEAT: -114.1930
 CYCLE:    64 TIME:   0.055 TIME LEFT:  2.00D  GRAD.:    15.111 HEAT: -114.6475
 CYCLE:    65 TIME:   0.055 TIME LEFT:  2.00D  GRAD.:    12.828 HEAT: -114.7450
 CYCLE:    66 TIME:   0.051 TIME LEFT:  2.00D  GRAD.:    14.202 HEAT: -114.8960
 CYCLE:    67 TIME:   0.055 TIME LEFT:  2.00D  GRAD.:    17.116 HEAT: -115.0650
 CYCLE:    68 TIME:   0.055 TIME LEFT:  2.00D  GRAD.:    31.317 HEAT: -115.0675
 CYCLE:    69 TIME:   0.055 TIME LEFT:  2.00D  GRAD.:     9.625 HEAT: -115.2484
 CYCLE:    70 TIME:   0.066 TIME LEFT:  2.00D  GRAD.:     7.414 HEAT: -115.2996
 CYCLE:    71 TIME:   0.055 TIME LEFT:  2.00D  GRAD.:    10.458 HEAT: -115.3936
 CYCLE:    72 TIME:   0.066 TIME LEFT:  2.00D  GRAD.:    13.793 HEAT: -115.5224
 CYCLE:    73 TIME:   0.059 TIME LEFT:  2.00D  GRAD.:    16.746 HEAT: -115.6831
 CYCLE:    74 TIME:   0.055 TIME LEFT:  2.00D  GRAD.:    13.368 HEAT: -115.8376
 CYCLE:    75 TIME:   0.055 TIME LEFT:  2.00D  GRAD.:    11.760 HEAT: -115.9628
 CYCLE:    76 TIME:   0.055 TIME LEFT:  2.00D  GRAD.:    10.267 HEAT: -116.0703
 CYCLE:    77 TIME:   0.059 TIME LEFT:  2.00D  GRAD.:     9.861 HEAT: -116.1374
 CYCLE:    78 TIME:   0.066 TIME LEFT:  2.00D  GRAD.:     8.983 HEAT: -116.2144
 CYCLE:    79 TIME:   0.051 TIME LEFT:  2.00D  GRAD.:    20.961 HEAT: -116.3234
 CYCLE:    80 TIME:   0.059 TIME LEFT:  2.00D  GRAD.:    10.332 HEAT: -116.4383
 CYCLE:    81 TIME:   0.070 TIME LEFT:  2.00D  GRAD.:    10.324 HEAT: -116.5126
 CYCLE:    82 TIME:   0.059 TIME LEFT:  2.00D  GRAD.:    11.071 HEAT: -116.6145
 CYCLE:    83 TIME:   0.055 TIME LEFT:  2.00D  GRAD.:    24.457 HEAT: -116.6438
 CYCLE:    84 TIME:   0.055 TIME LEFT:  2.00D  GRAD.:     8.840 HEAT: -116.7566
 CYCLE:    85 TIME:   0.051 TIME LEFT:  2.00D  GRAD.:     6.433 HEAT: -116.8151
 CYCLE:    86 TIME:   0.055 TIME LEFT:  2.00D  GRAD.:     7.752 HEAT: -116.8653
 CYCLE:    87 TIME:   0.051 TIME LEFT:  2.00D  GRAD.:     8.059 HEAT: -116.9426
 CYCLE:    88 TIME:   0.051 TIME LEFT:  2.00D  GRAD.:    17.487 HEAT: -116.9540
 CYCLE:    89 TIME:   0.059 TIME LEFT:  2.00D  GRAD.:     5.142 HEAT: -117.0200
 CYCLE:    90 TIME:   0.055 TIME LEFT:  2.00D  GRAD.:     4.498 HEAT: -117.0387
 CYCLE:    91 TIME:   0.055 TIME LEFT:  2.00D  GRAD.:     6.455 HEAT: -117.0718
 CYCLE:    92 TIME:   0.051 TIME LEFT:  2.00D  GRAD.:     9.059 HEAT: -117.1040
 CYCLE:    93 TIME:   0.051 TIME LEFT:  2.00D  GRAD.:     6.074 HEAT: -117.1443
 CYCLE:    94 TIME:   0.062 TIME LEFT:  2.00D  GRAD.:     5.336 HEAT: -117.1836
 CYCLE:    95 TIME:   0.109 TIME LEFT:  2.00D  GRAD.:     8.926 HEAT: -117.2349
 CYCLE:    96 TIME:   0.078 TIME LEFT:  2.00D  GRAD.:    11.687 HEAT: -117.2696
 CYCLE:    97 TIME:   0.070 TIME LEFT:  2.00D  GRAD.:     7.272 HEAT: -117.3112
 CYCLE:    98 TIME:   0.062 TIME LEFT:  2.00D  GRAD.:     6.390 HEAT: -117.3618
 CYCLE:    99 TIME:   0.070 TIME LEFT:  2.00D  GRAD.:     6.763 HEAT: -117.3841
 CYCLE:   100 TIME:   0.055 TIME LEFT:  2.00D  GRAD.:     5.367 HEAT: -117.4142
 CYCLE:   101 TIME:   0.055 TIME LEFT:  2.00D  GRAD.:    10.074 HEAT: -117.4348
 CYCLE:   102 TIME:   0.055 TIME LEFT:  2.00D  GRAD.:     5.286 HEAT: -117.4614
 CYCLE:   103 TIME:   0.055 TIME LEFT:  2.00D  GRAD.:     4.964 HEAT: -117.4863
 CYCLE:   104 TIME:   0.055 TIME LEFT:  2.00D  GRAD.:     6.337 HEAT: -117.5194
 CYCLE:   105 TIME:   0.051 TIME LEFT:  2.00D  GRAD.:    11.207 HEAT: -117.5724
 CYCLE:   106 TIME:   0.066 TIME LEFT:  2.00D  GRAD.:     8.753 HEAT: -117.6368
 CYCLE:   107 TIME:   0.062 TIME LEFT:  2.00D  GRAD.:     6.833 HEAT: -117.6921
 CYCLE:   108 TIME:   0.066 TIME LEFT:  2.00D  GRAD.:     9.712 HEAT: -117.7549
 CYCLE:   109 TIME:   0.070 TIME LEFT:  2.00D  GRAD.:     8.523 HEAT: -117.8033
 CYCLE:   110 TIME:   0.059 TIME LEFT:  2.00D  GRAD.:     7.262 HEAT: -117.8488
 CYCLE:   111 TIME:   0.055 TIME LEFT:  2.00D  GRAD.:     8.806 HEAT: -117.9240
 CYCLE:   112 TIME:   0.066 TIME LEFT:  2.00D  GRAD.:    12.955 HEAT: -117.9808
 CYCLE:   113 TIME:   0.059 TIME LEFT:  2.00D  GRAD.:     9.828 HEAT: -118.0403
 CYCLE:   114 TIME:   0.062 TIME LEFT:  2.00D  GRAD.:    10.787 HEAT: -118.1105
 CYCLE:   115 TIME:   0.062 TIME LEFT:  2.00D  GRAD.:    18.288 HEAT: -118.1727
 CYCLE:   116 TIME:   0.055 TIME LEFT:  2.00D  GRAD.:     8.381 HEAT: -118.2610
 CYCLE:   117 TIME:   0.062 TIME LEFT:  2.00D  GRAD.:     6.929 HEAT: -118.3080
 CYCLE:   118 TIME:   0.055 TIME LEFT:  2.00D  GRAD.:    11.003 HEAT: -118.3870
 CYCLE:   119 TIME:   0.051 TIME LEFT:  2.00D  GRAD.:    12.956 HEAT: -118.4709
 CYCLE:   120 TIME:   0.055 TIME LEFT:  2.00D  GRAD.:    15.681 HEAT: -118.5741
 CYCLE:   121 TIME:   0.055 TIME LEFT:  2.00D  GRAD.:     9.564 HEAT: -118.6353
 CYCLE:   122 TIME:   0.055 TIME LEFT:  2.00D  GRAD.:     7.808 HEAT: -118.6671
 CYCLE:   123 TIME:   0.059 TIME LEFT:  2.00D  GRAD.:    10.159 HEAT: -118.7535
 CYCLE:   124 TIME:   0.055 TIME LEFT:  2.00D  GRAD.:    12.386 HEAT: -118.8631
 CYCLE:   125 TIME:   0.062 TIME LEFT:  2.00D  GRAD.:     9.816 HEAT: -118.9621
 CYCLE:   126 TIME:   0.074 TIME LEFT:  2.00D  GRAD.:    10.182 HEAT: -119.0591
 CYCLE:   127 TIME:   0.066 TIME LEFT:  2.00D  GRAD.:    12.863 HEAT: -119.1734
 CYCLE:   128 TIME:   0.070 TIME LEFT:  2.00D  GRAD.:    13.167 HEAT: -119.2730
 CYCLE:   129 TIME:   0.066 TIME LEFT:  2.00D  GRAD.:     9.981 HEAT: -119.3281
 CYCLE:   130 TIME:   0.070 TIME LEFT:  2.00D  GRAD.:     8.938 HEAT: -119.3633
 CYCLE:   131 TIME:   0.066 TIME LEFT:  2.00D  GRAD.:    14.485 HEAT: -119.4166
 CYCLE:   132 TIME:   0.062 TIME LEFT:  2.00D  GRAD.:     8.281 HEAT: -119.4808
 CYCLE:   133 TIME:   0.059 TIME LEFT:  2.00D  GRAD.:     5.359 HEAT: -119.5517
 CYCLE:   134 TIME:   0.051 TIME LEFT:  2.00D  GRAD.:     6.463 HEAT: -119.5888
 CYCLE:   135 TIME:   0.055 TIME LEFT:  2.00D  GRAD.:     7.339 HEAT: -119.6284
 CYCLE:   136 TIME:   0.051 TIME LEFT:  2.00D  GRAD.:     7.561 HEAT: -119.6547
 CYCLE:   137 TIME:   0.051 TIME LEFT:  2.00D  GRAD.:     5.792 HEAT: -119.6776
 CYCLE:   138 TIME:   0.051 TIME LEFT:  2.00D  GRAD.:     6.024 HEAT: -119.7154
 CYCLE:   139 TIME:   0.051 TIME LEFT:  2.00D  GRAD.:    10.248 HEAT: -119.7562
 CYCLE:   140 TIME:   0.051 TIME LEFT:  2.00D  GRAD.:     6.889 HEAT: -119.8003
 CYCLE:   141 TIME:   0.055 TIME LEFT:  2.00D  GRAD.:     6.676 HEAT: -119.8534
 CYCLE:   142 TIME:   0.051 TIME LEFT:  2.00D  GRAD.:     9.939 HEAT: -119.9025
 CYCLE:   143 TIME:   0.051 TIME LEFT:  2.00D  GRAD.:     8.281 HEAT: -119.9667
 CYCLE:   144 TIME:   0.051 TIME LEFT:  2.00D  GRAD.:     7.290 HEAT: -120.0151
 CYCLE:   145 TIME:   0.055 TIME LEFT:  2.00D  GRAD.:     7.553 HEAT: -120.0541
 CYCLE:   146 TIME:   0.062 TIME LEFT:  2.00D  GRAD.:     6.561 HEAT: -120.0886
 CYCLE:   147 TIME:   0.070 TIME LEFT:  2.00D  GRAD.:     7.565 HEAT: -120.1379
 CYCLE:   148 TIME:   0.062 TIME LEFT:  2.00D  GRAD.:     9.724 HEAT: -120.1845
 CYCLE:   149 TIME:   0.070 TIME LEFT:  2.00D  GRAD.:     6.836 HEAT: -120.2311
 CYCLE:   150 TIME:   0.066 TIME LEFT:  2.00D  GRAD.:     6.393 HEAT: -120.2774
 CYCLE:   151 TIME:   0.066 TIME LEFT:  2.00D  GRAD.:    10.740 HEAT: -120.3294
 CYCLE:   152 TIME:   0.070 TIME LEFT:  2.00D  GRAD.:     8.391 HEAT: -120.3824
 CYCLE:   153 TIME:   0.066 TIME LEFT:  2.00D  GRAD.:     5.775 HEAT: -120.4200
 CYCLE:   154 TIME:   0.074 TIME LEFT:  2.00D  GRAD.:     6.241 HEAT: -120.4568
 CYCLE:   155 TIME:   0.066 TIME LEFT:  2.00D  GRAD.:     6.551 HEAT: -120.4966
 CYCLE:   156 TIME:   0.066 TIME LEFT:  2.00D  GRAD.:     8.420 HEAT: -120.5392
 CYCLE:   157 TIME:   0.090 TIME LEFT:  2.00D  GRAD.:     6.128 HEAT: -120.5717
 CYCLE:   158 TIME:   0.082 TIME LEFT:  2.00D  GRAD.:     4.963 HEAT: -120.5920
 CYCLE:   159 TIME:   0.066 TIME LEFT:  2.00D  GRAD.:     4.888 HEAT: -120.6125
 CYCLE:   160 TIME:   0.070 TIME LEFT:  2.00D  GRAD.:     6.840 HEAT: -120.6412
 CYCLE:   161 TIME:   0.078 TIME LEFT:  2.00D  GRAD.:     5.827 HEAT: -120.6712
 CYCLE:   162 TIME:   0.070 TIME LEFT:  2.00D  GRAD.:     4.619 HEAT: -120.6912
 CYCLE:   163 TIME:   0.070 TIME LEFT:  2.00D  GRAD.:     4.872 HEAT: -120.7172
 CYCLE:   164 TIME:   0.070 TIME LEFT:  2.00D  GRAD.:     6.802 HEAT: -120.7390
 CYCLE:   165 TIME:   0.074 TIME LEFT:  2.00D  GRAD.:    16.404 HEAT: -120.7468
 CYCLE:   166 TIME:   0.070 TIME LEFT:  2.00D  GRAD.:     5.802 HEAT: -120.7966
 CYCLE:   167 TIME:   0.070 TIME LEFT:  2.00D  GRAD.:     3.574 HEAT: -120.8129
 CYCLE:   168 TIME:   0.070 TIME LEFT:  2.00D  GRAD.:     4.434 HEAT: -120.8287
 CYCLE:   169 TIME:   0.070 TIME LEFT:  2.00D  GRAD.:     5.757 HEAT: -120.8560
 CYCLE:   170 TIME:   0.062 TIME LEFT:  2.00D  GRAD.:     4.245 HEAT: -120.8855
 CYCLE:   171 TIME:   0.070 TIME LEFT:  2.00D  GRAD.:     6.963 HEAT: -120.9038
 CYCLE:   172 TIME:   0.066 TIME LEFT:  2.00D  GRAD.:     4.257 HEAT: -120.9232
 CYCLE:   173 TIME:   0.062 TIME LEFT:  2.00D  GRAD.:     4.587 HEAT: -120.9410
 CYCLE:   174 TIME:   0.098 TIME LEFT:  2.00D  GRAD.:     6.267 HEAT: -120.9583
 CYCLE:   175 TIME:   0.055 TIME LEFT:  2.00D  GRAD.:     5.634 HEAT: -120.9835
 CYCLE:   176 TIME:   0.051 TIME LEFT:  2.00D  GRAD.:     7.389 HEAT: -121.0001
 CYCLE:   177 TIME:   0.059 TIME LEFT:  2.00D  GRAD.:     4.431 HEAT: -121.0138
 CYCLE:   178 TIME:   0.055 TIME LEFT:  2.00D  GRAD.:     6.088 HEAT: -121.0294
 CYCLE:   179 TIME:   0.055 TIME LEFT:  2.00D  GRAD.:     5.391 HEAT: -121.0460
 CYCLE:   180 TIME:   0.055 TIME LEFT:  2.00D  GRAD.:     5.154 HEAT: -121.0788
 CYCLE:   181 TIME:   0.055 TIME LEFT:  2.00D  GRAD.:     6.271 HEAT: -121.1192
 CYCLE:   182 TIME:   0.051 TIME LEFT:  2.00D  GRAD.:     6.875 HEAT: -121.1595
 CYCLE:   183 TIME:   0.051 TIME LEFT:  2.00D  GRAD.:    11.001 HEAT: -121.1967
 CYCLE:   184 TIME:   0.055 TIME LEFT:  2.00D  GRAD.:    18.975 HEAT: -121.2182
 CYCLE:   185 TIME:   0.055 TIME LEFT:  2.00D  GRAD.:    12.377 HEAT: -121.3131
 CYCLE:   186 TIME:   0.055 TIME LEFT:  2.00D  GRAD.:    12.888 HEAT: -121.3485
 CYCLE:   187 TIME:   0.051 TIME LEFT:  2.00D  GRAD.:     7.444 HEAT: -121.3940
 CYCLE:   188 TIME:   0.051 TIME LEFT:  2.00D  GRAD.:    14.990 HEAT: -121.4234
 CYCLE:   189 TIME:   0.055 TIME LEFT:  2.00D  GRAD.:    12.363 HEAT: -121.5014
 CYCLE:   190 TIME:   0.051 TIME LEFT:  2.00D  GRAD.:    10.801 HEAT: -121.5634
 CYCLE:   191 TIME:   0.055 TIME LEFT:  2.00D  GRAD.:     7.456 HEAT: -121.6234
 CYCLE:   192 TIME:   0.051 TIME LEFT:  2.00D  GRAD.:     8.199 HEAT: -121.6714
 CYCLE:   193 TIME:   0.051 TIME LEFT:  2.00D  GRAD.:     5.886 HEAT: -121.7151
 CYCLE:   194 TIME:   0.051 TIME LEFT:  2.00D  GRAD.:     6.667 HEAT: -121.7572
 CYCLE:   195 TIME:   0.066 TIME LEFT:  2.00D  GRAD.:     9.923 HEAT: -121.8052
 CYCLE:   196 TIME:   0.051 TIME LEFT:  2.00D  GRAD.:     8.932 HEAT: -121.8620
 CYCLE:   197 TIME:   0.051 TIME LEFT:  2.00D  GRAD.:     6.019 HEAT: -121.8978
 CYCLE:   198 TIME:   0.051 TIME LEFT:  2.00D  GRAD.:     4.827 HEAT: -121.9270
 CYCLE:   199 TIME:   0.055 TIME LEFT:  2.00D  GRAD.:     7.074 HEAT: -121.9531
 CYCLE:   200 TIME:   0.051 TIME LEFT:  2.00D  GRAD.:     5.483 HEAT: -121.9822
 CYCLE:   201 TIME:   0.051 TIME LEFT:  2.00D  GRAD.:     5.549 HEAT: -122.0140
 CYCLE:   202 TIME:   0.051 TIME LEFT:  2.00D  GRAD.:     6.002 HEAT: -122.0434
 CYCLE:   203 TIME:   0.055 TIME LEFT:  2.00D  GRAD.:     6.550 HEAT: -122.0602
 CYCLE:   204 TIME:   0.062 TIME LEFT:  2.00D  GRAD.:     4.304 HEAT: -122.0757
 CYCLE:   205 TIME:   0.062 TIME LEFT:  2.00D  GRAD.:     4.407 HEAT: -122.0928
 CYCLE:   206 TIME:   0.059 TIME LEFT:  2.00D  GRAD.:     4.970 HEAT: -122.1048
 CYCLE:   207 TIME:   0.059 TIME LEFT:  2.00D  GRAD.:     4.111 HEAT: -122.1187
 CYCLE:   208 TIME:   0.055 TIME LEFT:  2.00D  GRAD.:     5.366 HEAT: -122.1448
 CYCLE:   209 TIME:   0.051 TIME LEFT:  2.00D  GRAD.:     5.722 HEAT: -122.1581
 CYCLE:   210 TIME:   0.051 TIME LEFT:  2.00D  GRAD.:     3.957 HEAT: -122.1697
 CYCLE:   211 TIME:   0.051 TIME LEFT:  2.00D  GRAD.:     4.107 HEAT: -122.1958
 CYCLE:   212 TIME:   0.055 TIME LEFT:  2.00D  GRAD.:     5.500 HEAT: -122.2150
 CYCLE:   213 TIME:   0.051 TIME LEFT:  2.00D  GRAD.:     5.908 HEAT: -122.2421
 CYCLE:   214 TIME:   0.055 TIME LEFT:  2.00D  GRAD.:     7.917 HEAT: -122.2650
 CYCLE:   215 TIME:   0.051 TIME LEFT:  2.00D  GRAD.:     4.369 HEAT: -122.2869
 CYCLE:   216 TIME:   0.051 TIME LEFT:  2.00D  GRAD.:     4.761 HEAT: -122.3075
 CYCLE:   217 TIME:   0.051 TIME LEFT:  2.00D  GRAD.:     5.175 HEAT: -122.3348
 CYCLE:   218 TIME:   0.059 TIME LEFT:  2.00D  GRAD.:    11.889 HEAT: -122.3519
 CYCLE:   219 TIME:   0.055 TIME LEFT:  2.00D  GRAD.:     4.253 HEAT: -122.3876
 CYCLE:   220 TIME:   0.055 TIME LEFT:  2.00D  GRAD.:     3.139 HEAT: -122.3998
 CYCLE:   221 TIME:   0.055 TIME LEFT:  2.00D  GRAD.:     5.233 HEAT: -122.4134
 CYCLE:   222 TIME:   0.051 TIME LEFT:  2.00D  GRAD.:     5.836 HEAT: -122.4256
 CYCLE:   223 TIME:   0.051 TIME LEFT:  2.00D  GRAD.:     4.052 HEAT: -122.4374
 CYCLE:   224 TIME:   0.055 TIME LEFT:  2.00D  GRAD.:     3.966 HEAT: -122.4525
 CYCLE:   225 TIME:   0.051 TIME LEFT:  2.00D  GRAD.:     5.569 HEAT: -122.4602
 CYCLE:   226 TIME:   0.051 TIME LEFT:  2.00D  GRAD.:     4.069 HEAT: -122.4694
 CYCLE:   227 TIME:   0.051 TIME LEFT:  2.00D  GRAD.:     2.999 HEAT: -122.4853
 CYCLE:   228 TIME:   0.051 TIME LEFT:  2.00D  GRAD.:     4.187 HEAT: -122.4927
 CYCLE:   229 TIME:   0.051 TIME LEFT:  2.00D  GRAD.:     3.560 HEAT: -122.5016
 CYCLE:   230 TIME:   0.055 TIME LEFT:  2.00D  GRAD.:     6.025 HEAT: -122.5157
 CYCLE:   231 TIME:   0.059 TIME LEFT:  2.00D  GRAD.:     4.156 HEAT: -122.5267
 CYCLE:   232 TIME:   0.055 TIME LEFT:  2.00D  GRAD.:     3.039 HEAT: -122.5342
 CYCLE:   233 TIME:   0.051 TIME LEFT:  2.00D  GRAD.:     3.087 HEAT: -122.5500
 CYCLE:   234 TIME:   0.051 TIME LEFT:  2.00D  GRAD.:     4.306 HEAT: -122.5634
 CYCLE:   235 TIME:   0.055 TIME LEFT:  2.00D  GRAD.:     3.829 HEAT: -122.5798
 CYCLE:   236 TIME:   0.051 TIME LEFT:  2.00D  GRAD.:     4.327 HEAT: -122.5930
 CYCLE:   237 TIME:   0.051 TIME LEFT:  2.00D  GRAD.:     3.888 HEAT: -122.6060
 CYCLE:   238 TIME:   0.062 TIME LEFT:  2.00D  GRAD.:     9.804 HEAT: -122.6089
 CYCLE:   239 TIME:   0.094 TIME LEFT:  2.00D  GRAD.:     2.996 HEAT: -122.6236
 CYCLE:   240 TIME:   0.062 TIME LEFT:  2.00D  GRAD.:     2.278 HEAT: -122.6289
 CYCLE:   241 TIME:   0.051 TIME LEFT:  2.00D  GRAD.:     2.766 HEAT: -122.6348
 CYCLE:   242 TIME:   0.051 TIME LEFT:  2.00D  GRAD.:     2.751 HEAT: -122.6438
 CYCLE:   243 TIME:   0.051 TIME LEFT:  2.00D  GRAD.:     9.687 HEAT: -122.6404
 CYCLE:   244 TIME:   0.051 TIME LEFT:  2.00D  GRAD.:     2.353 HEAT: -122.6573
 CYCLE:   245 TIME:   0.051 TIME LEFT:  2.00D  GRAD.:     1.986 HEAT: -122.6606
 CYCLE:   246 TIME:   0.055 TIME LEFT:  2.00D  GRAD.:     2.960 HEAT: -122.6705
 CYCLE:   247 TIME:   0.051 TIME LEFT:  2.00D  GRAD.:     4.411 HEAT: -122.6832
 CYCLE:   248 TIME:   0.051 TIME LEFT:  2.00D  GRAD.:     7.091 HEAT: -122.6912
 CYCLE:   249 TIME:   0.051 TIME LEFT:  2.00D  GRAD.:     2.656 HEAT: -122.7033
 CYCLE:   250 TIME:   0.051 TIME LEFT:  2.00D  GRAD.:     3.111 HEAT: -122.7098
 CYCLE:   251 TIME:   0.066 TIME LEFT:  2.00D  GRAD.:     3.058 HEAT: -122.7171
 CYCLE:   252 TIME:   0.055 TIME LEFT:  2.00D  GRAD.:     4.392 HEAT: -122.7309
 CYCLE:   253 TIME:   0.051 TIME LEFT:  2.00D  GRAD.:     6.847 HEAT: -122.7394
 CYCLE:   254 TIME:   0.051 TIME LEFT:  2.00D  GRAD.:     3.572 HEAT: -122.7510
 CYCLE:   255 TIME:   0.051 TIME LEFT:  2.00D  GRAD.:     4.654 HEAT: -122.7643
 CYCLE:   256 TIME:   0.055 TIME LEFT:  2.00D  GRAD.:     3.926 HEAT: -122.7741
 CYCLE:   257 TIME:   0.051 TIME LEFT:  2.00D  GRAD.:     3.812 HEAT: -122.8002
 CYCLE:   258 TIME:   0.051 TIME LEFT:  2.00D  GRAD.:    17.196 HEAT: -122.7847
 CYCLE:   259 TIME:   0.062 TIME LEFT:  2.00D  GRAD.:    14.073 HEAT: -122.7852
 CYCLE:   260 TIME:   0.055 TIME LEFT:  2.00D  GRAD.:     3.137 HEAT: -122.8256
 CYCLE:   261 TIME:   0.051 TIME LEFT:  2.00D  GRAD.:     8.981 HEAT: -122.8109
 CYCLE:   262 TIME:   0.051 TIME LEFT:  2.00D  GRAD.:     2.351 HEAT: -122.8335
 CYCLE:   263 TIME:   0.051 TIME LEFT:  2.00D  GRAD.:     1.736 HEAT: -122.8372
 CYCLE:   264 TIME:   0.055 TIME LEFT:  2.00D  GRAD.:    11.159 HEAT: -122.8330
 CYCLE:   265 TIME:   0.051 TIME LEFT:  2.00D  GRAD.:     3.553 HEAT: -122.8487
 CYCLE:   266 TIME:   0.051 TIME LEFT:  2.00D  GRAD.:     2.512 HEAT: -122.8528
 CYCLE:   267 TIME:   0.094 TIME LEFT:  2.00D  GRAD.:     2.044 HEAT: -122.8606
 CYCLE:   268 TIME:   0.055 TIME LEFT:  2.00D  GRAD.:     1.915 HEAT: -122.8658
 CYCLE:   269 TIME:   0.051 TIME LEFT:  2.00D  GRAD.:     3.947 HEAT: -122.8695
 CYCLE:   270 TIME:   0.051 TIME LEFT:  2.00D  GRAD.:     2.150 HEAT: -122.8742
 CYCLE:   271 TIME:   0.051 TIME LEFT:  2.00D  GRAD.:     1.815 HEAT: -122.8771
 CYCLE:   272 TIME:   0.062 TIME LEFT:  2.00D  GRAD.:     2.827 HEAT: -122.8811
 CYCLE:   273 TIME:   0.059 TIME LEFT:  2.00D  GRAD.:     3.378 HEAT: -122.8883
 CYCLE:   274 TIME:   0.066 TIME LEFT:  2.00D  GRAD.:     2.114 HEAT: -122.8945
 CYCLE:   275 TIME:   0.070 TIME LEFT:  2.00D  GRAD.:     1.914 HEAT: -122.9009
 CYCLE:   276 TIME:   0.051 TIME LEFT:  2.00D  GRAD.:     2.804 HEAT: -122.9053
 CYCLE:   277 TIME:   0.051 TIME LEFT:  2.00D  GRAD.:     2.677 HEAT: -122.9090
 CYCLE:   278 TIME:   0.055 TIME LEFT:  2.00D  GRAD.:     2.202 HEAT: -122.9143
 CYCLE:   279 TIME:   0.062 TIME LEFT:  2.00D  GRAD.:     2.463 HEAT: -122.9202
 CYCLE:   280 TIME:   0.051 TIME LEFT:  2.00D  GRAD.:     4.485 HEAT: -122.9257
 CYCLE:   281 TIME:   0.051 TIME LEFT:  2.00D  GRAD.:     2.784 HEAT: -122.9323
 CYCLE:   282 TIME:   0.059 TIME LEFT:  2.00D  GRAD.:     2.965 HEAT: -122.9420
 CYCLE:   283 TIME:   0.047 TIME LEFT:  2.00D  GRAD.:     2.973 HEAT: -122.9488
 CYCLE:   284 TIME:   0.055 TIME LEFT:  2.00D  GRAD.:     7.124 HEAT: -122.9577
 CYCLE:   285 TIME:   0.055 TIME LEFT:  2.00D  GRAD.:     3.267 HEAT: -122.9705
 CYCLE:   286 TIME:   0.051 TIME LEFT:  2.00D  GRAD.:     2.491 HEAT: -122.9769
 CYCLE:   287 TIME:   0.051 TIME LEFT:  2.00D  GRAD.:     3.214 HEAT: -122.9851
 CYCLE:   288 TIME:   0.055 TIME LEFT:  2.00D  GRAD.:     6.396 HEAT: -122.9947
 CYCLE:   289 TIME:   0.051 TIME LEFT:  2.00D  GRAD.:     3.951 HEAT: -123.0075
 CYCLE:   290 TIME:   0.051 TIME LEFT:  2.00D  GRAD.:     3.080 HEAT: -123.0222
 CYCLE:   291 TIME:   0.055 TIME LEFT:  2.00D  GRAD.:     4.516 HEAT: -123.0333
 CYCLE:   292 TIME:   0.090 TIME LEFT:  2.00D  GRAD.:     4.376 HEAT: -123.0495
 CYCLE:   293 TIME:   0.070 TIME LEFT:  2.00D  GRAD.:     5.521 HEAT: -123.0680
 CYCLE:   294 TIME:   0.070 TIME LEFT:  2.00D  GRAD.:     5.116 HEAT: -123.0849
 CYCLE:   295 TIME:   0.055 TIME LEFT:  2.00D  GRAD.:     3.854 HEAT: -123.0991
 CYCLE:   296 TIME:   0.055 TIME LEFT:  2.00D  GRAD.:     5.123 HEAT: -123.1191
 CYCLE:   297 TIME:   0.055 TIME LEFT:  2.00D  GRAD.:     7.973 HEAT: -123.1332
 CYCLE:   298 TIME:   0.066 TIME LEFT:  2.00D  GRAD.:     3.939 HEAT: -123.1494
 CYCLE:   299 TIME:   0.055 TIME LEFT:  2.00D  GRAD.:     5.252 HEAT: -123.1658
 CYCLE:   300 TIME:   0.055 TIME LEFT:  2.00D  GRAD.:     3.532 HEAT: -123.1773
 CYCLE:   301 TIME:   0.051 TIME LEFT:  2.00D  GRAD.:     5.148 HEAT: -123.1957
 CYCLE:   302 TIME:   0.055 TIME LEFT:  2.00D  GRAD.:     3.456 HEAT: -123.2056
 CYCLE:   303 TIME:   0.051 TIME LEFT:  2.00D  GRAD.:     3.756 HEAT: -123.2184
 CYCLE:   304 TIME:   0.055 TIME LEFT:  2.00D  GRAD.:     4.511 HEAT: -123.2260
 CYCLE:   305 TIME:   0.051 TIME LEFT:  2.00D  GRAD.:     3.619 HEAT: -123.2346
 CYCLE:   306 TIME:   0.055 TIME LEFT:  2.00D  GRAD.:     3.411 HEAT: -123.2490
 CYCLE:   307 TIME:   0.055 TIME LEFT:  2.00D  GRAD.:     6.961 HEAT: -123.2566
 CYCLE:   308 TIME:   0.051 TIME LEFT:  2.00D  GRAD.:     4.382 HEAT: -123.2674
 CYCLE:   309 TIME:   0.051 TIME LEFT:  2.00D  GRAD.:     3.243 HEAT: -123.2833
 CYCLE:   310 TIME:   0.055 TIME LEFT:  2.00D  GRAD.:     3.004 HEAT: -123.2913
 CYCLE:   311 TIME:   0.051 TIME LEFT:  2.00D  GRAD.:     6.069 HEAT: -123.3056
 CYCLE:   312 TIME:   0.055 TIME LEFT:  2.00D  GRAD.:     7.080 HEAT: -123.3151
 CYCLE:   313 TIME:   0.055 TIME LEFT:  2.00D  GRAD.:     2.739 HEAT: -123.3253
 CYCLE:   314 TIME:   0.051 TIME LEFT:  2.00D  GRAD.:     2.508 HEAT: -123.3328
 CYCLE:   315 TIME:   0.055 TIME LEFT:  2.00D  GRAD.:     2.970 HEAT: -123.3435
 CYCLE:   316 TIME:   0.055 TIME LEFT:  2.00D  GRAD.:     6.225 HEAT: -123.3554
 CYCLE:   317 TIME:   0.055 TIME LEFT:  2.00D  GRAD.:     3.557 HEAT: -123.3683
 CYCLE:   318 TIME:   0.055 TIME LEFT:  2.00D  GRAD.:     3.054 HEAT: -123.3755
 CYCLE:   319 TIME:   0.070 TIME LEFT:  2.00D  GRAD.:     3.542 HEAT: -123.3853
 CYCLE:   320 TIME:   0.070 TIME LEFT:  2.00D  GRAD.:     4.415 HEAT: -123.3957
 CYCLE:   321 TIME:   0.070 TIME LEFT:  2.00D  GRAD.:     3.926 HEAT: -123.4115
 CYCLE:   322 TIME:   0.051 TIME LEFT:  2.00D  GRAD.:     3.943 HEAT: -123.4264
 CYCLE:   323 TIME:   0.055 TIME LEFT:  2.00D  GRAD.:     4.022 HEAT: -123.4435
 CYCLE:   324 TIME:   0.055 TIME LEFT:  2.00D  GRAD.:     5.522 HEAT: -123.4631
 CYCLE:   325 TIME:   0.055 TIME LEFT:  2.00D  GRAD.:     9.262 HEAT: -123.4788
 CYCLE:   326 TIME:   0.055 TIME LEFT:  2.00D  GRAD.:     4.130 HEAT: -123.4948
 CYCLE:   327 TIME:   0.059 TIME LEFT:  2.00D  GRAD.:    10.759 HEAT: -123.5041
 CYCLE:   328 TIME:   0.051 TIME LEFT:  2.00D  GRAD.:     4.399 HEAT: -123.5265
 CYCLE:   329 TIME:   0.055 TIME LEFT:  2.00D  GRAD.:     5.287 HEAT: -123.5473
 CYCLE:   330 TIME:   0.051 TIME LEFT:  2.00D  GRAD.:     4.879 HEAT: -123.5643
 CYCLE:   331 TIME:   0.055 TIME LEFT:  2.00D  GRAD.:     5.594 HEAT: -123.6079
 CYCLE:   332 TIME:   0.055 TIME LEFT:  2.00D  GRAD.:    29.815 HEAT: -123.5251
 CYCLE:   333 TIME:   0.051 TIME LEFT:  2.00D  GRAD.:    14.447 HEAT: -123.6014
 CYCLE:   334 TIME:   0.055 TIME LEFT:  2.00D  GRAD.:     4.870 HEAT: -123.6795
 CYCLE:   335 TIME:   0.062 TIME LEFT:  2.00D  GRAD.:    16.629 HEAT: -123.5978
 CYCLE:   336 TIME:   0.051 TIME LEFT:  2.00D  GRAD.:     4.024 HEAT: -123.7109
 CYCLE:   337 TIME:   0.055 TIME LEFT:  2.00D  GRAD.:     3.628 HEAT: -123.7284
 CYCLE:   338 TIME:   0.062 TIME LEFT:  2.00D  GRAD.:     5.175 HEAT: -123.7634
 CYCLE:   339 TIME:   0.059 TIME LEFT:  2.00D  GRAD.:    12.877 HEAT: -123.7903
 CYCLE:   340 TIME:   0.055 TIME LEFT:  2.00D  GRAD.:     7.011 HEAT: -123.8215
 CYCLE:   341 TIME:   0.051 TIME LEFT:  2.00D  GRAD.:     4.748 HEAT: -123.8514
 CYCLE:   342 TIME:   0.055 TIME LEFT:  2.00D  GRAD.:     6.042 HEAT: -123.8719
 CYCLE:   343 TIME:   0.055 TIME LEFT:  2.00D  GRAD.:    10.648 HEAT: -123.9040
 CYCLE:   344 TIME:   0.055 TIME LEFT:  2.00D  GRAD.:     5.665 HEAT: -123.9405
 CYCLE:   345 TIME:   0.055 TIME LEFT:  2.00D  GRAD.:     4.344 HEAT: -123.9599
 CYCLE:   346 TIME:   0.051 TIME LEFT:  2.00D  GRAD.:     6.581 HEAT: -123.9859
 CYCLE:   347 TIME:   0.055 TIME LEFT:  2.00D  GRAD.:     7.113 HEAT: -124.0084
 CYCLE:   348 TIME:   0.055 TIME LEFT:  2.00D  GRAD.:     5.243 HEAT: -124.0403
 CYCLE:   349 TIME:   0.055 TIME LEFT:  2.00D  GRAD.:     7.113 HEAT: -124.0676
 CYCLE:   350 TIME:   0.055 TIME LEFT:  2.00D  GRAD.:     4.805 HEAT: -124.0915
 CYCLE:   351 TIME:   0.051 TIME LEFT:  2.00D  GRAD.:     4.801 HEAT: -124.1073
 CYCLE:   352 TIME:   0.051 TIME LEFT:  2.00D  GRAD.:     3.709 HEAT: -124.1288
 CYCLE:   353 TIME:   0.059 TIME LEFT:  2.00D  GRAD.:     3.981 HEAT: -124.1421
 CYCLE:   354 TIME:   0.051 TIME LEFT:  2.00D  GRAD.:     3.369 HEAT: -124.1551
 CYCLE:   355 TIME:   0.055 TIME LEFT:  2.00D  GRAD.:     4.363 HEAT: -124.1666
 CYCLE:   356 TIME:   0.055 TIME LEFT:  2.00D  GRAD.:     3.612 HEAT: -124.1831
 CYCLE:   357 TIME:   0.098 TIME LEFT:  2.00D  GRAD.:     4.810 HEAT: -124.2008
 CYCLE:   358 TIME:   0.066 TIME LEFT:  2.00D  GRAD.:     6.033 HEAT: -124.2104
 CYCLE:   359 TIME:   0.051 TIME LEFT:  2.00D  GRAD.:     3.320 HEAT: -124.2199
 CYCLE:   360 TIME:   0.055 TIME LEFT:  2.00D  GRAD.:     3.742 HEAT: -124.2327
 CYCLE:   361 TIME:   0.055 TIME LEFT:  2.00D  GRAD.:     3.716 HEAT: -124.2428
 CYCLE:   362 TIME:   0.051 TIME LEFT:  2.00D  GRAD.:     6.366 HEAT: -124.2554
 CYCLE:   363 TIME:   0.055 TIME LEFT:  2.00D  GRAD.:     3.457 HEAT: -124.2689
 CYCLE:   364 TIME:   0.051 TIME LEFT:  2.00D  GRAD.:     2.592 HEAT: -124.2761
 CYCLE:   365 TIME:   0.051 TIME LEFT:  2.00D  GRAD.:     3.315 HEAT: -124.2849
 CYCLE:   366 TIME:   0.059 TIME LEFT:  2.00D  GRAD.:     5.418 HEAT: -124.2901
 CYCLE:   367 TIME:   0.051 TIME LEFT:  2.00D  GRAD.:     3.041 HEAT: -124.2967
 CYCLE:   368 TIME:   0.051 TIME LEFT:  2.00D  GRAD.:     2.985 HEAT: -124.3060
 CYCLE:   369 TIME:   0.051 TIME LEFT:  2.00D  GRAD.:     3.229 HEAT: -124.3120
 CYCLE:   370 TIME:   0.055 TIME LEFT:  2.00D  GRAD.:     4.904 HEAT: -124.3254
 CYCLE:   371 TIME:   0.051 TIME LEFT:  2.00D  GRAD.:     8.261 HEAT: -124.3281
 CYCLE:   372 TIME:   0.055 TIME LEFT:  2.00D  GRAD.:     2.826 HEAT: -124.3417
 CYCLE:   373 TIME:   0.051 TIME LEFT:  2.00D  GRAD.:     2.158 HEAT: -124.3465
 CYCLE:   374 TIME:   0.055 TIME LEFT:  2.00D  GRAD.:     3.149 HEAT: -124.3540
 CYCLE:   375 TIME:   0.055 TIME LEFT:  2.00D  GRAD.:     6.020 HEAT: -124.3617
 CYCLE:   376 TIME:   0.051 TIME LEFT:  2.00D  GRAD.:     2.795 HEAT: -124.3700
 CYCLE:   377 TIME:   0.055 TIME LEFT:  2.00D  GRAD.:     1.711 HEAT: -124.3747
 CYCLE:   378 TIME:   0.055 TIME LEFT:  2.00D  GRAD.:     1.828 HEAT: -124.3774
 CYCLE:   379 TIME:   0.062 TIME LEFT:  2.00D  GRAD.:     4.249 HEAT: -124.3803
 CYCLE:   380 TIME:   0.055 TIME LEFT:  2.00D  GRAD.:     1.842 HEAT: -124.3844
 CYCLE:   381 TIME:   0.051 TIME LEFT:  2.00D  GRAD.:     1.681 HEAT: -124.3868
 CYCLE:   382 TIME:   0.051 TIME LEFT:  2.00D  GRAD.:     1.945 HEAT: -124.3910
 CYCLE:   383 TIME:   0.055 TIME LEFT:  2.00D  GRAD.:     2.212 HEAT: -124.3964
 CYCLE:   384 TIME:   0.051 TIME LEFT:  2.00D  GRAD.:     7.838 HEAT: -124.3940
 CYCLE:   385 TIME:   0.051 TIME LEFT:  2.00D  GRAD.:     1.933 HEAT: -124.4049
 CYCLE:   386 TIME:   0.051 TIME LEFT:  2.00D  GRAD.:     1.552 HEAT: -124.4073
 CYCLE:   387 TIME:   0.059 TIME LEFT:  2.00D  GRAD.:     2.117 HEAT: -124.4118
 CYCLE:   388 TIME:   0.055 TIME LEFT:  2.00D  GRAD.:     3.976 HEAT: -124.4152
 CYCLE:   389 TIME:   0.051 TIME LEFT:  2.00D  GRAD.:     2.113 HEAT: -124.4200
 CYCLE:   390 TIME:   0.051 TIME LEFT:  2.00D  GRAD.:     1.927 HEAT: -124.4244
 CYCLE:   391 TIME:   0.055 TIME LEFT:  2.00D  GRAD.:     3.495 HEAT: -124.4293
 CYCLE:   392 TIME:   0.051 TIME LEFT:  2.00D  GRAD.:     3.380 HEAT: -124.4348
 CYCLE:   393 TIME:   0.051 TIME LEFT:  2.00D  GRAD.:     2.309 HEAT: -124.4406
 CYCLE:   394 TIME:   0.055 TIME LEFT:  2.00D  GRAD.:     2.656 HEAT: -124.4471
 CYCLE:   395 TIME:   0.051 TIME LEFT:  2.00D  GRAD.:     5.728 HEAT: -124.4484
 CYCLE:   396 TIME:   0.051 TIME LEFT:  2.00D  GRAD.:     2.145 HEAT: -124.4531
 CYCLE:   397 TIME:   0.051 TIME LEFT:  2.00D  GRAD.:     2.056 HEAT: -124.4560
 CYCLE:   398 TIME:   0.051 TIME LEFT:  2.00D  GRAD.:     2.051 HEAT: -124.4596
 CYCLE:   399 TIME:   0.051 TIME LEFT:  2.00D  GRAD.:     3.217 HEAT: -124.4658
 CYCLE:   400 TIME:   0.066 TIME LEFT:  2.00D  GRAD.:     5.146 HEAT: -124.4662
 CYCLE:   401 TIME:   0.078 TIME LEFT:  2.00D  GRAD.:     1.582 HEAT: -124.4718
 CYCLE:   402 TIME:   0.051 TIME LEFT:  2.00D  GRAD.:     1.266 HEAT: -124.4736
 CYCLE:   403 TIME:   0.055 TIME LEFT:  2.00D  GRAD.:     1.764 HEAT: -124.4765
 CYCLE:   404 TIME:   0.051 TIME LEFT:  2.00D  GRAD.:     2.045 HEAT: -124.4798
 CYCLE:   405 TIME:   0.051 TIME LEFT:  2.00D  GRAD.:     3.757 HEAT: -124.4818
 CYCLE:   406 TIME:   0.051 TIME LEFT:  2.00D  GRAD.:     1.669 HEAT: -124.4849
 CYCLE:   407 TIME:   0.051 TIME LEFT:  2.00D  GRAD.:     1.564 HEAT: -124.4862
 CYCLE:   408 TIME:   0.055 TIME LEFT:  2.00D  GRAD.:     2.412 HEAT: -124.4902
 CYCLE:   409 TIME:   0.051 TIME LEFT:  2.00D  GRAD.:     3.665 HEAT: -124.4937
 CYCLE:   410 TIME:   0.051 TIME LEFT:  2.00D  GRAD.:     2.018 HEAT: -124.4975
 CYCLE:   411 TIME:   0.051 TIME LEFT:  2.00D  GRAD.:     1.447 HEAT: -124.5012
 CYCLE:   412 TIME:   0.055 TIME LEFT:  2.00D  GRAD.:     1.781 HEAT: -124.5036
 CYCLE:   413 TIME:   0.055 TIME LEFT:  2.00D  GRAD.:     3.929 HEAT: -124.5065
 CYCLE:   414 TIME:   0.051 TIME LEFT:  2.00D  GRAD.:     1.829 HEAT: -124.5098
 CYCLE:   415 TIME:   0.051 TIME LEFT:  2.00D  GRAD.:     1.338 HEAT: -124.5112
 CYCLE:   416 TIME:   0.051 TIME LEFT:  2.00D  GRAD.:     1.552 HEAT: -124.5133
 CYCLE:   417 TIME:   0.051 TIME LEFT:  2.00D  GRAD.:     2.290 HEAT: -124.5152
 CYCLE:   418 TIME:   0.051 TIME LEFT:  2.00D  GRAD.:     1.517 HEAT: -124.5178
 CYCLE:   419 TIME:   0.051 TIME LEFT:  2.00D  GRAD.:     1.553 HEAT: -124.5201
 CYCLE:   420 TIME:   0.066 TIME LEFT:  2.00D  GRAD.:     2.107 HEAT: -124.5216
 CYCLE:   421 TIME:   0.055 TIME LEFT:  2.00D  GRAD.:     1.371 HEAT: -124.5230
 CYCLE:   422 TIME:   0.051 TIME LEFT:  2.00D  GRAD.:     1.450 HEAT: -124.5250
 CYCLE:   423 TIME:   0.051 TIME LEFT:  2.00D  GRAD.:     1.214 HEAT: -124.5265
 CYCLE:   424 TIME:   0.051 TIME LEFT:  2.00D  GRAD.:     2.996 HEAT: -124.5287
 CYCLE:   425 TIME:   0.062 TIME LEFT:  2.00D  GRAD.:     1.927 HEAT: -124.5308
 CYCLE:   426 TIME:   0.059 TIME LEFT:  2.00D  GRAD.:     1.195 HEAT: -124.5318
 CYCLE:   427 TIME:   0.059 TIME LEFT:  2.00D  GRAD.:     1.288 HEAT: -124.5337
 CYCLE:   428 TIME:   0.055 TIME LEFT:  2.00D  GRAD.:     1.331 HEAT: -124.5357
 CYCLE:   429 TIME:   0.051 TIME LEFT:  2.00D  GRAD.:     1.840 HEAT: -124.5393
 CYCLE:   430 TIME:   0.055 TIME LEFT:  2.00D  GRAD.:     6.047 HEAT: -124.5379
 CYCLE:   431 TIME:   0.051 TIME LEFT:  2.00D  GRAD.:     1.268 HEAT: -124.5430
 CYCLE:   432 TIME:   0.055 TIME LEFT:  2.00D  GRAD.:     1.382 HEAT: -124.5438
 CYCLE:   433 TIME:   0.051 TIME LEFT:  2.00D  GRAD.:     1.297 HEAT: -124.5459
 CYCLE:   434 TIME:   0.051 TIME LEFT:  2.00D  GRAD.:     1.882 HEAT: -124.5483
 CYCLE:   435 TIME:   0.051 TIME LEFT:  2.00D  GRAD.:     2.273 HEAT: -124.5493
 CYCLE:   436 TIME:   0.051 TIME LEFT:  2.00D  GRAD.:     1.136 HEAT: -124.5504
 CYCLE:   437 TIME:   0.051 TIME LEFT:  2.00D  GRAD.:     1.283 HEAT: -124.5519
 CYCLE:   438 TIME:   0.055 TIME LEFT:  2.00D  GRAD.:     0.982 HEAT: -124.5527

 -------------------------------------------------------------------------------
 AUX LARGE CHARGE=0 SINGLET  PM6
 malat



     HERBERTS TEST WAS SATISFIED IN BFGS                      
     SCF FIELD WAS ACHIEVED                                   


                              PM6 CALCULATION
                                                       MOPAC2016 (Version: 20.225L)
                                                       Sun Jan 31 17:54:20 2021
                                                       No. of days remaining = 194




          FINAL HEAT OF FORMATION =       -124.55271 KCAL/MOL =    -521.12853 KJ/MOL


          TOTAL ENERGY            =      -4540.99727 EV
          ELECTRONIC ENERGY       =     -37398.64530 EV  POINT GROUP:     C1  
          CORE-CORE REPULSION     =      32857.64803 EV
          COSMO AREA              =        378.07 SQUARE ANGSTROMS
          COSMO VOLUME            =        469.62 CUBIC ANGSTROMS

          GRADIENT NORM           =          0.98171 = 0.13884 PER ATOM
          IONIZATION POTENTIAL    =          9.357209 EV
          HOMO LUMO ENERGIES (EV) =         -9.357 -1.073
          NO. OF FILLED LEVELS    =         72
          MOLECULAR WEIGHT        =        390.8657

          MOLECULAR DIMENSIONS (Angstroms)

            Atom       Atom       Distance
            H    50    H    35    13.31631
            H    32    H    41     8.91417
            H    44    H    48     5.55205


          SCF CALCULATIONS        =        439
 
          WALL-CLOCK TIME         =         24.930 SECONDS
          COMPUTATION TIME        =  4 MINUTES AND 54.370 SECONDS




   ATOM   CHEMICAL          X               Y               Z
  NUMBER   SYMBOL      (ANGSTROMS)     (ANGSTROMS)     (ANGSTROMS)
 
     1       C          9.68628300  *  -3.05777098  *  -0.53248247  *
     2       C          8.31827929  *  -2.76634156  *  -0.28286300  *
     3       C          7.98171616  *  -1.41575686  *  -0.11613093  *
     4       C          8.94603456  *  -0.40827044  *  -0.18060526  *
     5       C         10.27119431  *  -0.79144605  *  -0.43282413  *
     6       N         10.63642392  *  -2.08563705  *  -0.61343988  *
     7      Cl          6.34706219  *  -0.95034771  *   0.16611621  *
     8       C         10.17959437  *  -4.46414528  *  -0.76515573  *
     9       C         10.96824454  *  -5.00317683  *   0.40024686  *
    10       C         12.30794081  *  -5.38120511  *   0.22274785  *
    11       C         13.03002718  *  -5.92108929  *   1.29013503  *
    12       C         12.42622266  *  -6.08030591  *   2.54114033  *
    13       C         11.09454232  *  -5.69381416  *   2.72283965  *
    14       C         10.36631418  *  -5.16137440  *   1.65705001  *
    15       C          7.27698629  *  -3.84202630  *  -0.21550090  *
    16       C          6.92660534  *  -4.16871818  *   1.24715144  *
    17       N          5.81453469  *  -5.17408203  *   1.31850612  *
    18       C          6.24587023  *  -6.50720687  *   0.79996599  *
    19       C          5.34593996  *  -5.30710088  *   2.73333353  *
    20       C          3.26367582  *  -0.83163510  *  -0.16199987  *
    21       C          3.57816482  *  -2.17628080  *   0.40793573  *
    22       C          3.80501834  *  -3.29524920  *  -0.27221994  *
    23       C          3.80282592  *  -3.42855967  *  -1.74473473  *
    24       O          3.83989535  *   0.18992470  *   0.11769616  *
    25       O          4.68095361  *  -3.78025307  *  -2.48923714  *
    26       O          2.55219363  *  -3.11531735  *  -2.25410796  *
    27       H          9.32284625  *  -5.14542276  *  -0.98122600  *
    28       H         10.80130585  *  -4.47154468  *  -1.69161387  *
    29       H          6.36675699  *  -3.54182687  *  -0.78128464  *
    30       H          7.63282959  *  -4.75895458  *  -0.73922985  *
    31       H          8.67739191  *   0.63844568  *  -0.04533371  *
    32       H         11.07626416  *  -0.04952794  *  -0.50154266  *
    33       H         12.79115417  *  -5.24428675  *  -0.74310697  *
    34       H          9.32321333  *  -4.85963056  *   1.80493138  *
    35       H         14.06811821  *  -6.21644467  *   1.14573415  *
    36       H         12.99161331  *  -6.49989559  *   3.36990133  *
    37       H         10.62544640  *  -5.80695229  *   3.69832953  *
    38       H          7.85305022  *  -4.50342249  *   1.78127695  *
    39       H          6.58351890  *  -3.24184190  *   1.75961891  *
    40       H          7.14316472  *  -6.92121283  *   1.28388723  *
    41       H          5.42620792  *  -7.23266845  *   0.92102897  *
    42       H          6.44504213  *  -6.42299319  *  -0.28121149  *
    43       H          6.11095790  *  -5.66070104  *   3.44089559  *
    44       H          4.97386334  *  -4.33325923  *   3.08765991  *
    45       H          4.49996907  *  -6.01218486  *   2.76767343  *
    46       H          3.66036520  *  -2.15829845  *   1.50484728  *
    47       H          4.09413353  *  -4.24064954  *   0.24323115  *
    48       H          2.50742181  *  -3.18700755  *  -3.24734762  *
    49       O          2.20899554  *  -0.74986111  *  -1.02885524  *
    50       H          1.80821612  *  -1.62911197  *  -1.29872673  *

                             CARTESIAN COORDINATES

   1    C        9.686283000    -3.057770979    -0.532482471
   2    C        8.318279289    -2.766341564    -0.282863002
   3    C        7.981716159    -1.415756859    -0.116130932
   4    C        8.946034560    -0.408270445    -0.180605257
   5    C       10.271194308    -0.791446050    -0.432824129
   6    N       10.636423915    -2.085637048    -0.613439875
   7   Cl        6.347062193    -0.950347708     0.166116208
   8    C       10.179594367    -4.464145280    -0.765155734
   9    C       10.968244538    -5.003176830     0.400246861
  10    C       12.307940809    -5.381205112     0.222747850
  11    C       13.030027177    -5.921089292     1.290135033
  12    C       12.426222664    -6.080305906     2.541140330
  13    C       11.094542324    -5.693814155     2.722839648
  14    C       10.366314183    -5.161374402     1.657050009
  15    C        7.276986291    -3.842026299    -0.215500895
  16    C        6.926605344    -4.168718175     1.247151442
  17    N        5.814534685    -5.174082028     1.318506118
  18    C        6.245870232    -6.507206872     0.799965986
  19    C        5.345939963    -5.307100879     2.733333532
  20    C        3.263675816    -0.831635104    -0.161999874
  21    C        3.578164824    -2.176280796     0.407935732
  22    C        3.805018338    -3.295249198    -0.272219942
  23    C        3.802825919    -3.428559672    -1.744734735
  24    O        3.839895351     0.189924700     0.117696155
  25    O        4.680953606    -3.780253071    -2.489237141
  26    O        2.552193625    -3.115317348    -2.254107962
  27    H        9.322846253    -5.145422764    -0.981226000
  28    H       10.801305848    -4.471544683    -1.691613874
  29    H        6.366756992    -3.541826871    -0.781284636
  30    H        7.632829589    -4.758954580    -0.739229855
  31    H        8.677391910     0.638445681    -0.045333712
  32    H       11.076264165    -0.049527935    -0.501542658
  33    H       12.791154170    -5.244286747    -0.743106967
  34    H        9.323213334    -4.859630562     1.804931379
  35    H       14.068118210    -6.216444671     1.145734147
  36    H       12.991613314    -6.499895594     3.369901335
  37    H       10.625446402    -5.806952294     3.698329533
  38    H        7.853050225    -4.503422490     1.781276955
  39    H        6.583518902    -3.241841901     1.759618906
  40    H        7.143164721    -6.921212827     1.283887232
  41    H        5.426207919    -7.232668454     0.921028968
  42    H        6.445042126    -6.422993194    -0.281211490
  43    H        6.110957901    -5.660701041     3.440895594
  44    H        4.973863338    -4.333259228     3.087659905
  45    H        4.499969072    -6.012184857     2.767673432
  46    H        3.660365203    -2.158298449     1.504847280
  47    H        4.094133527    -4.240649536     0.243231153
  48    H        2.507421812    -3.187007549    -3.247347618
  49    O        2.208995536    -0.749861106    -1.028855242
  50    H        1.808216120    -1.629111965    -1.298726729


           Empirical Formula: C20 H23 N2 O4 Cl  =    50 atoms



      MOLECULAR POINT GROUP   :   C1  


                  EIGENVALUES  
 -33.16919 -32.50770 -32.26899 -31.45650 -31.32042 -30.85827 -29.93659 -28.90531
 -28.77858 -28.39314 -26.87166 -25.99495 -25.93946 -25.62360 -25.24211 -25.17790
 -24.13435 -23.44521 -22.89512 -21.75683 -21.54807 -21.31093 -21.10300 -20.47078
 -20.19188 -19.12811 -18.38846 -17.76255 -17.66393 -17.52684 -17.27060 -16.60661
 -16.44287 -16.36388 -16.09120 -16.05119 -15.78752 -15.60522 -15.54061 -15.25049
 -15.09170 -14.80047 -14.77727 -14.68489 -14.38452 -14.27873 -14.16603 -13.95497
 -13.88312 -13.62832 -13.32841 -13.27028 -13.18181 -13.00728 -12.92223 -12.80658
 -12.64683 -12.40598 -12.26438 -12.13620 -12.03630 -11.93478 -11.88322 -11.73280
 -11.25196 -10.98141 -10.27295 -10.08446  -9.87431  -9.73507  -9.44278  -9.35721
  -1.07344  -0.32468  -0.25713   0.01111   0.29797   0.33417   0.55760   0.77514
   0.94328   1.59845   2.09901   2.23547   2.30031   2.59082   2.82321   3.10112
   3.26035   3.39972   3.55602   3.70823   3.80013   3.86068   3.93184   4.09229
   4.13814   4.23259   4.28699   4.41927   4.44682   4.45626   4.68883   4.71567
   4.75915   4.84796   4.86358   5.02410   5.05134   5.14872   5.19115   5.19478
   5.20617   5.22993   5.26622   5.39661   5.43921   5.51565   5.57927   5.67460
   5.71581   5.81109   5.85224   5.93999   6.05917   6.06792   6.10627   6.22964
   6.29743   6.35013   6.50156  87.83469  87.86692  87.97614  88.33993  88.34716


              NET ATOMIC CHARGES AND DIPOLE CONTRIBUTIONS

  ATOM NO.   TYPE          CHARGE      No. of ELECS.   s-Pop       p-Pop       d-Pop       
    1          C           0.214736        3.7853     1.10004     2.68522
    2          C          -0.147211        4.1472     1.10396     3.04325
    3          C           0.105239        3.8948     1.10779     2.78697
    4          C          -0.297854        4.2979     1.11624     3.18162
    5          C           0.060440        3.9396     1.11416     2.82540
    6          N          -0.338911        5.3389     1.71008     3.62883
    7         Cl          -0.067182        7.0672     1.98963     5.06840     0.00916
    8          C          -0.332448        4.3324     1.08976     3.24269
    9          C           0.099531        3.9005     1.08681     2.81366
   10          C          -0.196664        4.1967     1.10996     3.08670
   11          C          -0.109348        4.1093     1.10528     3.00406
   12          C          -0.176442        4.1764     1.10535     3.07110
   13          C          -0.111358        4.1114     1.10382     3.00754
   14          C          -0.221431        4.2214     1.11068     3.11076
   15          C          -0.261131        4.2611     1.08364     3.17749
   16          C          -0.147755        4.1478     1.09832     3.04944
   17          N          -0.285968        5.2860     1.64201     3.64396
   18          C          -0.345214        4.3452     1.09032     3.25490
   19          C          -0.346764        4.3468     1.09085     3.25591
   20          C           0.636424        3.3636     1.07889     2.28469
   21          C          -0.249015        4.2490     1.13672     3.11230
   22          C          -0.206812        4.2068     1.13171     3.07510
   23          C           0.631796        3.3682     1.09451     2.27370
   24          O          -0.435252        6.4353     1.85237     4.58288
   25          O          -0.461955        6.4620     1.85184     4.61012
   26          O          -0.561172        6.5612     1.81476     4.74641
   27          H           0.165486        0.8345     0.83451
   28          H           0.180167        0.8198     0.81983
   29          H           0.173073        0.8269     0.82693
   30          H           0.149196        0.8508     0.85080
   31          H           0.190245        0.8098     0.80976
   32          H           0.169135        0.8309     0.83087
   33          H           0.155897        0.8441     0.84410
   34          H           0.153597        0.8464     0.84640
   35          H           0.143030        0.8570     0.85697
   36          H           0.147055        0.8529     0.85295
   37          H           0.139428        0.8606     0.86057
   38          H           0.121231        0.8788     0.87877
   39          H           0.145821        0.8542     0.85418
   40          H           0.133312        0.8667     0.86669
   41          H           0.150573        0.8494     0.84943
   42          H           0.155046        0.8450     0.84495
   43          H           0.133035        0.8670     0.86696
   44          H           0.148894        0.8511     0.85111
   45          H           0.152632        0.8474     0.84737
   46          H           0.201393        0.7986     0.79861
   47          H           0.247184        0.7528     0.75282
   48          H           0.352977        0.6470     0.64702
   49          O          -0.509799        6.5098     1.81169     4.69810
   50          H           0.353110        0.6469     0.64689
 DIPOLE           X         Y         Z       TOTAL
 POINT-CHG.    -0.719    -5.358     1.951     5.747
 HYBRID        -0.570    -0.091    -0.122     0.590
 SUM           -1.289    -5.449     1.829     5.890


          ATOMIC ORBITAL ELECTRON POPULATIONS

     Atom    s        px        py        pz      x^2-y^2     xz        z^2       yz        xy
    1  C   1.10004   0.88255   0.92591   0.87676
    2  C   1.10396   0.99522   0.97271   1.07532
    3  C   1.10779   0.86993   0.95904   0.95800
    4  C   1.11624   1.00186   1.08924   1.09052
    5  C   1.11416   0.98368   0.94652   0.89520
    6  N   1.71008   1.38292   1.06347   1.18245
    7 Cl   1.98963   1.22074   1.91777   1.92989   0.00338   0.00122   0.00153   0.00039   0.00264
    8  C   1.08976   1.13323   1.01516   1.09431
    9  C   1.08681   0.94482   0.93839   0.93045
   10  C   1.10996   1.00245   1.02386   1.06039
   11  C   1.10528   1.05067   0.98174   0.97165
   12  C   1.10535   1.00648   1.03142   1.03319
   13  C   1.10382   0.98937   0.98091   1.03726
   14  C   1.11068   1.07212   1.04485   0.99378
   15  C   1.08364   1.08046   1.06455   1.03247
   16  C   1.09832   1.00559   1.03111   1.01274
   17  N   1.64201   1.35636   1.09564   1.19195
   18  C   1.09032   1.14062   0.97718   1.13710
   19  C   1.09085   1.13369   1.16502   0.95720
   20  C   1.07889   0.72992   0.84010   0.71467
   21  C   1.13672   0.99334   0.99860   1.12036
   22  C   1.13171   0.99320   1.09714   0.98476
   23  C   1.09451   0.73666   0.67346   0.86357
   24  O   1.85237   1.55172   1.42766   1.60350
   25  O   1.85184   1.50749   1.48581   1.61682
   26  O   1.81476   1.50089   1.82959   1.41593
   27  H   0.83451
   28  H   0.81983
   29  H   0.82693
   30  H   0.85080
   31  H   0.80976
   32  H   0.83087
   33  H   0.84410
   34  H   0.84640
   35  H   0.85697
   36  H   0.85295
   37  H   0.86057
   38  H   0.87877
   39  H   0.85418
   40  H   0.86669
   41  H   0.84943
   42  H   0.84495
   43  H   0.86696
   44  H   0.85111
   45  H   0.84737
   46  H   0.79861
   47  H   0.75282
   48  H   0.64702
   49  O   1.81169   1.53693   1.51520   1.64597
   50  H   0.64689

 **********************
 *                    *
 * JOB ENDED NORMALLY *
 *                    *
 **********************



 TOTAL JOB TIME:            24.96 SECONDS

 == MOPAC DONE ==
