 *******************************************************************************
 ** Site#: 30659        For non-commercial use only    Version 20.225L 64BITS **
 *******************************************************************************
 ** Cite this program as: MOPAC2016, Version: 20.225L, James J. P. Stewart,   **
 ** Stewart Computational Chemistry, web: HTTP://OpenMOPAC.net. Days left: 194**
 *******************************************************************************
 **                                                                           **
 **                                MOPAC2016                                  **
 **                                                                           **
 *******************************************************************************

                              PM6 CALCULATION RESULTS

 *******************************************************************************
 *  CALCULATION DONE:                                Sun Jan 31 00:22:00 2021  *
 *  PM6        - The PM6 Hamiltonian to be used
 *  DOUBLET    - SPIN STATE DEFINED AS A DOUBLET
 *
 *
 *
 *                 CHARGE ON SYSTEM = +2
 *
 *
 *
 *  T=         - A TIME OF 172800.0 SECONDS REQUESTED
 *  DUMP=N     - RESTART FILE WRITTEN EVERY 7200.0 SECONDS REQUESTED
 *  AUX        - OUTPUT AUXILIARY INFORMATION
 *  LARGE      - EXPANDED OUTPUT TO BE PRINTED
 *******************************************************************************
 AUX LARGE CHARGE=2 DOUBLET  PM6
 Cu

   ATOM   CHEMICAL          X               Y               Z
  NUMBER   SYMBOL      (ANGSTROMS)     (ANGSTROMS)     (ANGSTROMS)
 
     1      Cu         -2.15179000  *   0.85429000  *  -0.13028000  *
     2       O         -2.64768000  *   4.10293000  *  -0.01919000  *
     3       H         -1.65853000  *   4.07012000  *   0.01481000  *
     4       H         -2.94140000  *   3.41300000  *   0.62760000  *
     5       O         -2.00986000  *  -2.14759000  *  -0.15868000  *
     6       H         -1.10825000  *  -1.79054000  *   0.04312000  *
     7       H         -2.40647000  *  -2.33553000  *   0.72867000  *
     8       O         -0.00172000  *   0.35857000  *  -2.09818000  *
     9       H          0.98704000  *   0.39771000  *  -2.13112000  *
    10       H         -0.27290000  *   1.25295000  *  -1.77119000  *
    11       O          0.78687000  *   0.34656000  *   1.08842000  *
    12       H          1.45013000  *   0.79155000  *   0.50320000  *
    13       H          0.06649000  *   1.01657000  *   1.19987000  *
    14       O         -5.16694000  *  -0.15542000  *  -0.85650000  *
    15       H         -4.38003000  *   0.34401000  *  -1.18990000  *
    16       H         -5.67547000  *   0.50927000  *  -0.32717000  *
    17       O         -4.28252000  *  -0.03265000  *   2.25045000  *
    18       H         -3.35159000  *   0.02396000  *   1.91785000  *
    19       H         -4.64389000  *   0.88137000  *   2.13191000  *
 


          CARTESIAN COORDINATES 

    NO.       ATOM           X           Y           Z

     1        Cu         -2.1518      0.8543     -0.1303
     2         O         -2.6477      4.1029     -0.0192
     3         H         -1.6585      4.0701      0.0148
     4         H         -2.9414      3.4130      0.6276
     5         O         -2.0099     -2.1476     -0.1587
     6         H         -1.1082     -1.7905      0.0431
     7         H         -2.4065     -2.3355      0.7287
     8         O         -0.0017      0.3586     -2.0982
     9         H          0.9870      0.3977     -2.1311
    10         H         -0.2729      1.2530     -1.7712
    11         O          0.7869      0.3466      1.0884
    12         H          1.4501      0.7915      0.5032
    13         H          0.0665      1.0166      1.1999
    14         O         -5.1669     -0.1554     -0.8565
    15         H         -4.3800      0.3440     -1.1899
    16         H         -5.6755      0.5093     -0.3272
    17         O         -4.2825     -0.0327      2.2504
    18         H         -3.3516      0.0240      1.9179
    19         H         -4.6439      0.8814      2.1319

 General Reference for PM6:
 "Optimization of Parameters for Semiempirical Methods V: Modification of NDDO Approximations
 and Application to 70 Elements", J. J. P. Stewart, J. Mol. Mod., 13, 1173-1213 (2007)
 URL: https://link.springer.com/article/10.1007/s00894-007-0233-4

           Empirical Formula: H12 O6 Cu  =    19 atoms



      MOLECULAR POINT GROUP   :   C1  


 DOUBLET STATE CALCULATION


          UHF CALCULATION, NO. OF ALPHA ELECTRONS =   29
                           NO. OF BETA  ELECTRONS =   28

          Geometry optimization using EF

          DIAGONAL MATRIX USED AS START HESSIAN

 CYCLE:     1 TIME:   0.228 TIME LEFT:  2.00D  GRAD.:   133.405 HEAT:  322.6340
 CYCLE:     2 TIME:   0.024 TIME LEFT:  2.00D  GRAD.:    96.888 HEAT:  306.8226
 CYCLE:     3 TIME:   0.020 TIME LEFT:  2.00D  GRAD.:   128.538 HEAT:  276.8437
 CYCLE:     4 TIME:   0.026 TIME LEFT:  2.00D  GRAD.:   160.287 HEAT:  243.8307
 CYCLE:     5 TIME:   0.047 TIME LEFT:  2.00D  GRAD.:   223.406 HEAT:  224.7927
 CYCLE:     6 TIME:   0.020 TIME LEFT:  2.00D  GRAD.:   159.104 HEAT:  200.0108
 CYCLE:     7 TIME:   0.015 TIME LEFT:  2.00D  GRAD.:   162.111 HEAT:  184.4881
 CYCLE:     8 TIME:   0.022 TIME LEFT:  2.00D  GRAD.:   167.165 HEAT:  175.2867
 CYCLE:     9 TIME:   0.021 TIME LEFT:  2.00D  GRAD.:   155.598 HEAT:  169.6015
 CYCLE:    10 TIME:   0.018 TIME LEFT:  2.00D  GRAD.:   101.640 HEAT:  157.8986
 CYCLE:    11 TIME:   0.014 TIME LEFT:  2.00D  GRAD.:    59.789 HEAT:  151.4825
 CYCLE:    12 TIME:   0.017 TIME LEFT:  2.00D  GRAD.:    52.976 HEAT:  149.1283
 CYCLE:    13 TIME:   0.017 TIME LEFT:  2.00D  GRAD.:    41.501 HEAT:  147.1438
 CYCLE:    14 TIME:   0.016 TIME LEFT:  2.00D  GRAD.:    24.329 HEAT:  145.5858
 CYCLE:    15 TIME:   0.013 TIME LEFT:  2.00D  GRAD.:    33.542 HEAT:  144.1526
 CYCLE:    16 TIME:   0.018 TIME LEFT:  2.00D  GRAD.:    27.223 HEAT:  142.5899
 CYCLE:    17 TIME:   0.014 TIME LEFT:  2.00D  GRAD.:    28.033 HEAT:  141.6759
 CYCLE:    18 TIME:   0.014 TIME LEFT:  2.00D  GRAD.:    21.806 HEAT:  141.0188
 CYCLE:    19 TIME:   0.017 TIME LEFT:  2.00D  GRAD.:    24.460 HEAT:  140.2569
 CYCLE:    20 TIME:   0.019 TIME LEFT:  2.00D  GRAD.:    35.366 HEAT:  138.9238
 CYCLE:    21 TIME:   0.015 TIME LEFT:  2.00D  GRAD.:    46.767 HEAT:  137.5346
 CYCLE:    22 TIME:   0.017 TIME LEFT:  2.00D  GRAD.:    32.209 HEAT:  135.9441
 CYCLE:    23 TIME:   0.015 TIME LEFT:  2.00D  GRAD.:    20.164 HEAT:  134.7891
 CYCLE:    24 TIME:   0.020 TIME LEFT:  2.00D  GRAD.:    22.416 HEAT:  134.1971
 CYCLE:    25 TIME:   0.026 TIME LEFT:  2.00D  GRAD.:    19.656 HEAT:  133.4941
 CYCLE:    26 TIME:   0.057 TIME LEFT:  2.00D  GRAD.:    30.022 HEAT:  132.3229
 CYCLE:    27 TIME:   0.020 TIME LEFT:  2.00D  GRAD.:    35.828 HEAT:  131.0283
 CYCLE:    28 TIME:   0.047 TIME LEFT:  2.00D  GRAD.:    52.013 HEAT:  128.5058
 CYCLE:    29 TIME:   0.043 TIME LEFT:  2.00D  GRAD.:    77.330 HEAT:  124.2015
 CYCLE:    30 TIME:   0.022 TIME LEFT:  2.00D  GRAD.:    85.454 HEAT:  120.1118
 CYCLE:    31 TIME:   0.041 TIME LEFT:  2.00D  GRAD.:    60.512 HEAT:  115.9242
 CYCLE:    32 TIME:   0.016 TIME LEFT:  2.00D  GRAD.:    95.647 HEAT:  115.8922
 CYCLE:    33 TIME:   0.025 TIME LEFT:  2.00D  GRAD.:    49.548 HEAT:  110.1821
 CYCLE:    34 TIME:   0.020 TIME LEFT:  2.00D  GRAD.:    26.960 HEAT:  108.7186
 CYCLE:    35 TIME:   0.019 TIME LEFT:  2.00D  GRAD.:    25.159 HEAT:  108.2243
 CYCLE:    36 TIME:   0.033 TIME LEFT:  2.00D  GRAD.:    16.360 HEAT:  107.6752
 CYCLE:    37 TIME:   0.030 TIME LEFT:  2.00D  GRAD.:    16.488 HEAT:  107.2532
 CYCLE:    38 TIME:   0.014 TIME LEFT:  2.00D  GRAD.:    15.229 HEAT:  106.5462
 CYCLE:    39 TIME:   0.017 TIME LEFT:  2.00D  GRAD.:    15.627 HEAT:  105.9881
 CYCLE:    40 TIME:   0.015 TIME LEFT:  2.00D  GRAD.:    17.593 HEAT:  105.5059
 CYCLE:    41 TIME:   0.013 TIME LEFT:  2.00D  GRAD.:    20.992 HEAT:  104.6387
 CYCLE:    42 TIME:   0.017 TIME LEFT:  2.00D  GRAD.:    21.039 HEAT:  103.8601
 CYCLE:    43 TIME:   0.047 TIME LEFT:  2.00D  GRAD.:    17.566 HEAT:  103.4518
 CYCLE:    44 TIME:   0.046 TIME LEFT:  2.00D  GRAD.:    22.356 HEAT:  103.1231
 CYCLE:    45 TIME:   0.039 TIME LEFT:  2.00D  GRAD.:    14.852 HEAT:  102.7567
 CYCLE:    46 TIME:   0.029 TIME LEFT:  2.00D  GRAD.:     9.724 HEAT:  102.5111
 CYCLE:    47 TIME:   0.018 TIME LEFT:  2.00D  GRAD.:     9.421 HEAT:  102.2052
 CYCLE:    48 TIME:   0.024 TIME LEFT:  2.00D  GRAD.:    12.696 HEAT:  102.0120
 CYCLE:    49 TIME:   0.013 TIME LEFT:  2.00D  GRAD.:    10.477 HEAT:  101.8497
 CYCLE:    50 TIME:   0.013 TIME LEFT:  2.00D  GRAD.:     9.870 HEAT:  101.6470
 CYCLE:    51 TIME:   0.013 TIME LEFT:  2.00D  GRAD.:    12.161 HEAT:  101.4223
 CYCLE:    52 TIME:   0.018 TIME LEFT:  2.00D  GRAD.:    19.171 HEAT:  101.4213
 CYCLE:    53 TIME:   0.017 TIME LEFT:  2.00D  GRAD.:     9.155 HEAT:  101.1398
 CYCLE:    54 TIME:   0.017 TIME LEFT:  2.00D  GRAD.:     7.972 HEAT:  101.0242
 CYCLE:    55 TIME:   0.017 TIME LEFT:  2.00D  GRAD.:    11.513 HEAT:  100.7730
 CYCLE:    56 TIME:   0.016 TIME LEFT:  2.00D  GRAD.:    17.924 HEAT:  100.6013
 CYCLE:    57 TIME:   0.013 TIME LEFT:  2.00D  GRAD.:    12.377 HEAT:  100.3201
 CYCLE:    58 TIME:   0.015 TIME LEFT:  2.00D  GRAD.:    10.476 HEAT:  99.88914
 CYCLE:    59 TIME:   0.015 TIME LEFT:  2.00D  GRAD.:    12.856 HEAT:  99.37932
 CYCLE:    60 TIME:   0.013 TIME LEFT:  2.00D  GRAD.:    20.638 HEAT:  98.89053
 CYCLE:    61 TIME:   0.011 TIME LEFT:  2.00D  GRAD.:    23.439 HEAT:  98.47175
 CYCLE:    62 TIME:   0.014 TIME LEFT:  2.00D  GRAD.:    19.386 HEAT:  97.80817
 CYCLE:    63 TIME:   0.011 TIME LEFT:  2.00D  GRAD.:    17.091 HEAT:  97.20697
 CYCLE:    64 TIME:   0.013 TIME LEFT:  2.00D  GRAD.:    19.050 HEAT:  96.60824
 CYCLE:    65 TIME:   0.013 TIME LEFT:  2.00D  GRAD.:    18.070 HEAT:  95.95464
 CYCLE:    66 TIME:   0.018 TIME LEFT:  2.00D  GRAD.:    25.947 HEAT:  95.60123
 CYCLE:    67 TIME:   0.016 TIME LEFT:  2.00D  GRAD.:    25.059 HEAT:  95.10400
 CYCLE:    68 TIME:   0.013 TIME LEFT:  2.00D  GRAD.:    12.480 HEAT:  94.51979
 CYCLE:    69 TIME:   0.015 TIME LEFT:  2.00D  GRAD.:    20.461 HEAT:  94.07387
 CYCLE:    70 TIME:   0.011 TIME LEFT:  2.00D  GRAD.:    18.075 HEAT:  93.60594
 CYCLE:    71 TIME:   0.016 TIME LEFT:  2.00D  GRAD.:    13.356 HEAT:  93.10374
 CYCLE:    72 TIME:   0.011 TIME LEFT:  2.00D  GRAD.:    19.162 HEAT:  92.74503
 CYCLE:    73 TIME:   0.015 TIME LEFT:  2.00D  GRAD.:    20.814 HEAT:  92.10993
 CYCLE:    74 TIME:   0.015 TIME LEFT:  2.00D  GRAD.:    15.521 HEAT:  91.23106
 CYCLE:    75 TIME:   0.012 TIME LEFT:  2.00D  GRAD.:    15.097 HEAT:  90.59154
 CYCLE:    76 TIME:   0.012 TIME LEFT:  2.00D  GRAD.:    21.522 HEAT:  90.22947
 CYCLE:    77 TIME:   0.036 TIME LEFT:  2.00D  GRAD.:    19.023 HEAT:  89.95574
 CYCLE:    78 TIME:   0.012 TIME LEFT:  2.00D  GRAD.:    13.244 HEAT:  89.54896
 CYCLE:    79 TIME:   0.013 TIME LEFT:  2.00D  GRAD.:    10.442 HEAT:  89.23167
 CYCLE:    80 TIME:   0.017 TIME LEFT:  2.00D  GRAD.:     8.337 HEAT:  88.86884
 CYCLE:    81 TIME:   0.015 TIME LEFT:  2.00D  GRAD.:     9.378 HEAT:  88.32171
 CYCLE:    82 TIME:   0.019 TIME LEFT:  2.00D  GRAD.:    17.206 HEAT:  87.70451
 CYCLE:    83 TIME:   0.012 TIME LEFT:  2.00D  GRAD.:    15.366 HEAT:  87.22771
 CYCLE:    84 TIME:   0.012 TIME LEFT:  2.00D  GRAD.:    18.335 HEAT:  86.81811
 CYCLE:    85 TIME:   0.012 TIME LEFT:  2.00D  GRAD.:    12.963 HEAT:  86.48677
 CYCLE:    86 TIME:   0.012 TIME LEFT:  2.00D  GRAD.:    14.639 HEAT:  86.26344
 CYCLE:    87 TIME:   0.012 TIME LEFT:  2.00D  GRAD.:    11.567 HEAT:  86.09207
 CYCLE:    88 TIME:   0.014 TIME LEFT:  2.00D  GRAD.:    11.298 HEAT:  85.86763
 CYCLE:    89 TIME:   0.013 TIME LEFT:  2.00D  GRAD.:    13.216 HEAT:  85.64618
 CYCLE:    90 TIME:   0.012 TIME LEFT:  2.00D  GRAD.:    12.151 HEAT:  85.42278
 CYCLE:    91 TIME:   0.014 TIME LEFT:  2.00D  GRAD.:    21.593 HEAT:  85.07192
 CYCLE:    92 TIME:   0.014 TIME LEFT:  2.00D  GRAD.:    17.185 HEAT:  84.47743
 CYCLE:    93 TIME:   0.013 TIME LEFT:  2.00D  GRAD.:    13.626 HEAT:  83.76092
 CYCLE:    94 TIME:   0.012 TIME LEFT:  2.00D  GRAD.:    20.331 HEAT:  83.34806
 CYCLE:    95 TIME:   0.013 TIME LEFT:  2.00D  GRAD.:    15.136 HEAT:  82.87885
 CYCLE:    96 TIME:   0.015 TIME LEFT:  2.00D  GRAD.:    13.625 HEAT:  82.51586
 CYCLE:    97 TIME:   0.012 TIME LEFT:  2.00D  GRAD.:    14.682 HEAT:  82.32713
 CYCLE:    98 TIME:   0.011 TIME LEFT:  2.00D  GRAD.:    11.453 HEAT:  82.03113
 CYCLE:    99 TIME:   0.012 TIME LEFT:  2.00D  GRAD.:    13.000 HEAT:  81.86509
 CYCLE:   100 TIME:   0.011 TIME LEFT:  2.00D  GRAD.:    17.638 HEAT:  81.61748
 CYCLE:   101 TIME:   0.012 TIME LEFT:  2.00D  GRAD.:    11.836 HEAT:  81.27083
 CYCLE:   102 TIME:   0.011 TIME LEFT:  2.00D  GRAD.:    13.394 HEAT:  80.93218
 CYCLE:   103 TIME:   0.012 TIME LEFT:  2.00D  GRAD.:    14.442 HEAT:  80.50114
 CYCLE:   104 TIME:   0.011 TIME LEFT:  2.00D  GRAD.:    10.204 HEAT:  80.11400
 CYCLE:   105 TIME:   0.012 TIME LEFT:  2.00D  GRAD.:    14.589 HEAT:  79.74424
 CYCLE:   106 TIME:   0.011 TIME LEFT:  2.00D  GRAD.:    11.291 HEAT:  79.37087
 CYCLE:   107 TIME:   0.011 TIME LEFT:  2.00D  GRAD.:    14.323 HEAT:  78.97689
 CYCLE:   108 TIME:   0.012 TIME LEFT:  2.00D  GRAD.:    13.113 HEAT:  78.56940
 CYCLE:   109 TIME:   0.011 TIME LEFT:  2.00D  GRAD.:    11.594 HEAT:  78.21020
 CYCLE:   110 TIME:   0.012 TIME LEFT:  2.00D  GRAD.:    15.302 HEAT:  77.95050
 CYCLE:   111 TIME:   0.011 TIME LEFT:  2.00D  GRAD.:    14.295 HEAT:  77.76343
 CYCLE:   112 TIME:   0.011 TIME LEFT:  2.00D  GRAD.:    13.351 HEAT:  77.50949
 CYCLE:   113 TIME:   0.012 TIME LEFT:  2.00D  GRAD.:    12.155 HEAT:  77.34511
 CYCLE:   114 TIME:   0.031 TIME LEFT:  2.00D  GRAD.:    17.897 HEAT:  77.33020
 CYCLE:   115 TIME:   0.012 TIME LEFT:  2.00D  GRAD.:     8.139 HEAT:  77.08323
 CYCLE:   116 TIME:   0.011 TIME LEFT:  2.00D  GRAD.:     8.518 HEAT:  76.94889
 CYCLE:   117 TIME:   0.012 TIME LEFT:  2.00D  GRAD.:     9.028 HEAT:  76.73785
 CYCLE:   118 TIME:   0.011 TIME LEFT:  2.00D  GRAD.:     8.565 HEAT:  76.39421
 CYCLE:   119 TIME:   0.012 TIME LEFT:  2.00D  GRAD.:    13.995 HEAT:  76.14340
 CYCLE:   120 TIME:   0.011 TIME LEFT:  2.00D  GRAD.:    13.104 HEAT:  75.87382
 CYCLE:   121 TIME:   0.013 TIME LEFT:  2.00D  GRAD.:    11.355 HEAT:  75.58248
 CYCLE:   122 TIME:   0.015 TIME LEFT:  2.00D  GRAD.:    10.471 HEAT:  75.34820
 CYCLE:   123 TIME:   0.016 TIME LEFT:  2.00D  GRAD.:     9.484 HEAT:  75.12791
 CYCLE:   124 TIME:   0.012 TIME LEFT:  2.00D  GRAD.:     7.805 HEAT:  74.94544
 CYCLE:   125 TIME:   0.011 TIME LEFT:  2.00D  GRAD.:     9.898 HEAT:  74.80183
 CYCLE:   126 TIME:   0.011 TIME LEFT:  2.00D  GRAD.:    10.938 HEAT:  74.66501
 CYCLE:   127 TIME:   0.011 TIME LEFT:  2.00D  GRAD.:     9.299 HEAT:  74.50447
 CYCLE:   128 TIME:   0.011 TIME LEFT:  2.00D  GRAD.:    13.406 HEAT:  74.38414
 CYCLE:   129 TIME:   0.011 TIME LEFT:  2.00D  GRAD.:     7.279 HEAT:  74.19111
 CYCLE:   130 TIME:   0.011 TIME LEFT:  2.00D  GRAD.:    14.572 HEAT:  74.11432
 CYCLE:   131 TIME:   0.011 TIME LEFT:  2.00D  GRAD.:    11.465 HEAT:  73.85744
 CYCLE:   132 TIME:   0.015 TIME LEFT:  2.00D  GRAD.:    10.169 HEAT:  73.51285
 CYCLE:   133 TIME:   0.014 TIME LEFT:  2.00D  GRAD.:     9.076 HEAT:  73.12378
 CYCLE:   134 TIME:   0.012 TIME LEFT:  2.00D  GRAD.:    23.527 HEAT:  72.92929
 CYCLE:   135 TIME:   0.021 TIME LEFT:  2.00D  GRAD.:    14.380 HEAT:  72.73582
 CYCLE:   136 TIME:   0.014 TIME LEFT:  2.00D  GRAD.:     6.657 HEAT:  72.65836
 CYCLE:   137 TIME:   0.016 TIME LEFT:  2.00D  GRAD.:    15.178 HEAT:  72.58272
 CYCLE:   138 TIME:   0.010 TIME LEFT:  2.00D  GRAD.:     6.289 HEAT:  72.45783
 CYCLE:   139 TIME:   0.012 TIME LEFT:  2.00D  GRAD.:     4.932 HEAT:  72.40170
 CYCLE:   140 TIME:   0.011 TIME LEFT:  2.00D  GRAD.:     5.513 HEAT:  72.33170
 CYCLE:   141 TIME:   0.011 TIME LEFT:  2.00D  GRAD.:     5.932 HEAT:  72.24167
 CYCLE:   142 TIME:   0.011 TIME LEFT:  2.00D  GRAD.:     6.257 HEAT:  72.19369
 CYCLE:   143 TIME:   0.011 TIME LEFT:  2.00D  GRAD.:     6.440 HEAT:  72.13683
 CYCLE:   144 TIME:   0.012 TIME LEFT:  2.00D  GRAD.:     6.659 HEAT:  72.05294
 CYCLE:   145 TIME:   0.011 TIME LEFT:  2.00D  GRAD.:     9.966 HEAT:  71.94209
 CYCLE:   146 TIME:   0.010 TIME LEFT:  2.00D  GRAD.:     7.930 HEAT:  71.84753
 CYCLE:   147 TIME:   0.011 TIME LEFT:  2.00D  GRAD.:     7.419 HEAT:  71.75460
 CYCLE:   148 TIME:   0.011 TIME LEFT:  2.00D  GRAD.:     4.123 HEAT:  71.68013
 CYCLE:   149 TIME:   0.011 TIME LEFT:  2.00D  GRAD.:     6.660 HEAT:  71.63525
 CYCLE:   150 TIME:   0.011 TIME LEFT:  2.00D  GRAD.:     5.432 HEAT:  71.58438
 CYCLE:   151 TIME:   0.011 TIME LEFT:  2.00D  GRAD.:     6.949 HEAT:  71.47599
 CYCLE:   152 TIME:   0.011 TIME LEFT:  2.00D  GRAD.:     6.210 HEAT:  71.35746
 CYCLE:   153 TIME:   0.011 TIME LEFT:  2.00D  GRAD.:     6.217 HEAT:  71.23893
 CYCLE:   154 TIME:   0.015 TIME LEFT:  2.00D  GRAD.:    11.186 HEAT:  71.16994
 CYCLE:   155 TIME:   0.015 TIME LEFT:  2.00D  GRAD.:     9.653 HEAT:  71.06779
 CYCLE:   156 TIME:   0.015 TIME LEFT:  2.00D  GRAD.:     6.977 HEAT:  70.96758
 CYCLE:   157 TIME:   0.015 TIME LEFT:  2.00D  GRAD.:     5.671 HEAT:  70.79886
 CYCLE:   158 TIME:   0.018 TIME LEFT:  2.00D  GRAD.:     6.221 HEAT:  70.64021
 CYCLE:   159 TIME:   0.015 TIME LEFT:  2.00D  GRAD.:     6.203 HEAT:  70.50706
 CYCLE:   160 TIME:   0.065 TIME LEFT:  2.00D  GRAD.:     7.813 HEAT:  70.46495
 CYCLE:   161 TIME:   0.017 TIME LEFT:  2.00D  GRAD.:     5.812 HEAT:  70.40929
 CYCLE:   162 TIME:   0.021 TIME LEFT:  2.00D  GRAD.:     4.587 HEAT:  70.34392
 CYCLE:   163 TIME:   0.014 TIME LEFT:  2.00D  GRAD.:     4.197 HEAT:  70.27163
 CYCLE:   164 TIME:   0.013 TIME LEFT:  2.00D  GRAD.:     5.754 HEAT:  70.19885
 CYCLE:   165 TIME:   0.014 TIME LEFT:  2.00D  GRAD.:     5.809 HEAT:  70.11390
 CYCLE:   166 TIME:   0.013 TIME LEFT:  2.00D  GRAD.:     6.172 HEAT:  70.00811
 CYCLE:   167 TIME:   0.011 TIME LEFT:  2.00D  GRAD.:     5.909 HEAT:  69.89738
 CYCLE:   168 TIME:   0.011 TIME LEFT:  2.00D  GRAD.:     6.935 HEAT:  69.77292
 CYCLE:   169 TIME:   0.011 TIME LEFT:  2.00D  GRAD.:     7.324 HEAT:  69.65021
 CYCLE:   170 TIME:   0.011 TIME LEFT:  2.00D  GRAD.:     7.043 HEAT:  69.51439
 CYCLE:   171 TIME:   0.012 TIME LEFT:  2.00D  GRAD.:     8.445 HEAT:  69.36891
 CYCLE:   172 TIME:   0.011 TIME LEFT:  2.00D  GRAD.:     8.744 HEAT:  69.21702
 CYCLE:   173 TIME:   0.010 TIME LEFT:  2.00D  GRAD.:    11.921 HEAT:  69.13723
 CYCLE:   174 TIME:   0.016 TIME LEFT:  2.00D  GRAD.:     9.646 HEAT:  68.97957
 CYCLE:   175 TIME:   0.015 TIME LEFT:  2.00D  GRAD.:    15.987 HEAT:  68.96355
 CYCLE:   176 TIME:   0.015 TIME LEFT:  2.00D  GRAD.:     5.922 HEAT:  68.76247
 CYCLE:   177 TIME:   0.015 TIME LEFT:  2.00D  GRAD.:    10.118 HEAT:  68.67833
 CYCLE:   178 TIME:   0.011 TIME LEFT:  2.00D  GRAD.:    11.857 HEAT:  68.58502
 CYCLE:   179 TIME:   0.013 TIME LEFT:  2.00D  GRAD.:     6.812 HEAT:  68.45074
 CYCLE:   180 TIME:   0.014 TIME LEFT:  2.00D  GRAD.:     9.915 HEAT:  68.38182
 CYCLE:   181 TIME:   0.011 TIME LEFT:  2.00D  GRAD.:     7.769 HEAT:  68.29215
 CYCLE:   182 TIME:   0.011 TIME LEFT:  2.00D  GRAD.:     5.715 HEAT:  68.14978
 CYCLE:   183 TIME:   0.011 TIME LEFT:  2.00D  GRAD.:     7.254 HEAT:  68.04626
 CYCLE:   184 TIME:   0.010 TIME LEFT:  2.00D  GRAD.:     7.815 HEAT:  67.92973
 CYCLE:   185 TIME:   0.053 TIME LEFT:  2.00D  GRAD.:     6.336 HEAT:  67.88266
 CYCLE:   186 TIME:   0.014 TIME LEFT:  2.00D  GRAD.:     6.732 HEAT:  67.86495
 CYCLE:   187 TIME:   0.010 TIME LEFT:  2.00D  GRAD.:     4.089 HEAT:  67.83155
 CYCLE:   188 TIME:   0.013 TIME LEFT:  2.00D  GRAD.:     3.763 HEAT:  67.80587
 CYCLE:   189 TIME:   0.010 TIME LEFT:  2.00D  GRAD.:     3.366 HEAT:  67.76901
 CYCLE:   190 TIME:   0.015 TIME LEFT:  2.00D  GRAD.:     3.666 HEAT:  67.71432
 CYCLE:   191 TIME:   0.015 TIME LEFT:  2.00D  GRAD.:     5.704 HEAT:  67.63503
 CYCLE:   192 TIME:   0.015 TIME LEFT:  2.00D  GRAD.:     6.343 HEAT:  67.55487
 CYCLE:   193 TIME:   0.014 TIME LEFT:  2.00D  GRAD.:     7.573 HEAT:  67.47017
 CYCLE:   194 TIME:   0.015 TIME LEFT:  2.00D  GRAD.:     5.955 HEAT:  67.39671
 CYCLE:   195 TIME:   0.011 TIME LEFT:  2.00D  GRAD.:     5.731 HEAT:  67.31719
 CYCLE:   196 TIME:   0.013 TIME LEFT:  2.00D  GRAD.:     6.956 HEAT:  67.23843
 CYCLE:   197 TIME:   0.012 TIME LEFT:  2.00D  GRAD.:    12.239 HEAT:  67.20206
 CYCLE:   198 TIME:   0.014 TIME LEFT:  2.00D  GRAD.:     7.585 HEAT:  67.10983
 CYCLE:   199 TIME:   0.010 TIME LEFT:  2.00D  GRAD.:    12.383 HEAT:  67.09687
 CYCLE:   200 TIME:   0.011 TIME LEFT:  2.00D  GRAD.:     8.161 HEAT:  66.99134
 CYCLE:   201 TIME:   0.011 TIME LEFT:  2.00D  GRAD.:    10.905 HEAT:  66.97017
 CYCLE:   202 TIME:   0.011 TIME LEFT:  2.00D  GRAD.:     4.990 HEAT:  66.87114
 CYCLE:   203 TIME:   0.015 TIME LEFT:  2.00D  GRAD.:     4.743 HEAT:  66.81502
 CYCLE:   204 TIME:   0.011 TIME LEFT:  2.00D  GRAD.:     6.815 HEAT:  66.77192
 CYCLE:   205 TIME:   0.010 TIME LEFT:  2.00D  GRAD.:     4.323 HEAT:  66.74023
 CYCLE:   206 TIME:   0.011 TIME LEFT:  2.00D  GRAD.:     5.819 HEAT:  66.71087
 CYCLE:   207 TIME:   0.076 TIME LEFT:  2.00D  GRAD.:     4.277 HEAT:  66.66983
 CYCLE:   208 TIME:   0.015 TIME LEFT:  2.00D  GRAD.:     4.899 HEAT:  66.60762
 CYCLE:   209 TIME:   0.014 TIME LEFT:  2.00D  GRAD.:     5.083 HEAT:  66.57421
 CYCLE:   210 TIME:   0.015 TIME LEFT:  2.00D  GRAD.:     6.019 HEAT:  66.49598
 CYCLE:   211 TIME:   0.015 TIME LEFT:  2.00D  GRAD.:     7.775 HEAT:  66.44195
 CYCLE:   212 TIME:   0.015 TIME LEFT:  2.00D  GRAD.:     8.001 HEAT:  66.38780
 CYCLE:   213 TIME:   0.014 TIME LEFT:  2.00D  GRAD.:     8.666 HEAT:  66.33437
 CYCLE:   214 TIME:   0.015 TIME LEFT:  2.00D  GRAD.:     5.134 HEAT:  66.27634
 CYCLE:   215 TIME:   0.015 TIME LEFT:  2.00D  GRAD.:     5.188 HEAT:  66.23015
 CYCLE:   216 TIME:   0.013 TIME LEFT:  2.00D  GRAD.:     5.794 HEAT:  66.13883
 CYCLE:   217 TIME:   0.011 TIME LEFT:  2.00D  GRAD.:     6.976 HEAT:  66.06344
 CYCLE:   218 TIME:   0.012 TIME LEFT:  2.00D  GRAD.:     8.229 HEAT:  66.01891
 CYCLE:   219 TIME:   0.013 TIME LEFT:  2.00D  GRAD.:     7.979 HEAT:  65.94368
 CYCLE:   220 TIME:   0.017 TIME LEFT:  2.00D  GRAD.:     7.037 HEAT:  65.90185
 CYCLE:   221 TIME:   0.013 TIME LEFT:  2.00D  GRAD.:     6.500 HEAT:  65.82142
 CYCLE:   222 TIME:   0.013 TIME LEFT:  2.00D  GRAD.:     6.681 HEAT:  65.74606
 CYCLE:   223 TIME:   0.011 TIME LEFT:  2.00D  GRAD.:     8.492 HEAT:  65.69626
 CYCLE:   224 TIME:   0.010 TIME LEFT:  2.00D  GRAD.:     5.866 HEAT:  65.64414
 CYCLE:   225 TIME:   0.011 TIME LEFT:  2.00D  GRAD.:     6.222 HEAT:  65.61290
 CYCLE:   226 TIME:   0.014 TIME LEFT:  2.00D  GRAD.:     5.028 HEAT:  65.57479
 CYCLE:   227 TIME:   0.015 TIME LEFT:  2.00D  GRAD.:     6.071 HEAT:  65.53499
 CYCLE:   228 TIME:   0.015 TIME LEFT:  2.00D  GRAD.:     7.849 HEAT:  65.46538
 CYCLE:   229 TIME:   0.015 TIME LEFT:  2.00D  GRAD.:     7.061 HEAT:  65.40935
 CYCLE:   230 TIME:   0.011 TIME LEFT:  2.00D  GRAD.:     7.842 HEAT:  65.36834
 CYCLE:   231 TIME:   0.014 TIME LEFT:  2.00D  GRAD.:     9.284 HEAT:  65.36227
 CYCLE:   232 TIME:   0.012 TIME LEFT:  2.00D  GRAD.:     5.399 HEAT:  65.30623
 CYCLE:   233 TIME:   0.012 TIME LEFT:  2.00D  GRAD.:     6.028 HEAT:  65.27885
 CYCLE:   234 TIME:   0.012 TIME LEFT:  2.00D  GRAD.:     5.390 HEAT:  65.23834
 CYCLE:   235 TIME:   0.012 TIME LEFT:  2.00D  GRAD.:     8.662 HEAT:  65.16778
 CYCLE:   236 TIME:   0.011 TIME LEFT:  2.00D  GRAD.:     5.707 HEAT:  65.11693
 CYCLE:   237 TIME:   0.011 TIME LEFT:  2.00D  GRAD.:     4.695 HEAT:  65.06991
 CYCLE:   238 TIME:   0.012 TIME LEFT:  2.00D  GRAD.:     7.981 HEAT:  65.03836
 CYCLE:   239 TIME:   0.028 TIME LEFT:  2.00D  GRAD.:     5.127 HEAT:  65.02116
 CYCLE:   240 TIME:   0.016 TIME LEFT:  2.00D  GRAD.:     5.495 HEAT:  64.98635
 CYCLE:   241 TIME:   0.011 TIME LEFT:  2.00D  GRAD.:     4.325 HEAT:  64.97752
 CYCLE:   242 TIME:   0.011 TIME LEFT:  2.00D  GRAD.:     2.539 HEAT:  64.96361
 CYCLE:   243 TIME:   0.011 TIME LEFT:  2.00D  GRAD.:     3.764 HEAT:  64.95088
 CYCLE:   244 TIME:   0.012 TIME LEFT:  2.00D  GRAD.:     3.395 HEAT:  64.93188
 CYCLE:   245 TIME:   0.011 TIME LEFT:  2.00D  GRAD.:     7.000 HEAT:  64.85346
 CYCLE:   246 TIME:   0.012 TIME LEFT:  2.00D  GRAD.:     4.550 HEAT:  64.81127
 CYCLE:   247 TIME:   0.011 TIME LEFT:  2.00D  GRAD.:     6.137 HEAT:  64.73534
 CYCLE:   248 TIME:   0.011 TIME LEFT:  2.00D  GRAD.:     6.419 HEAT:  64.70747
 CYCLE:   249 TIME:   0.014 TIME LEFT:  2.00D  GRAD.:     8.937 HEAT:  64.67694
 CYCLE:   250 TIME:   0.010 TIME LEFT:  2.00D  GRAD.:     6.595 HEAT:  64.63903
 CYCLE:   251 TIME:   0.011 TIME LEFT:  2.00D  GRAD.:     5.324 HEAT:  64.60704
 CYCLE:   252 TIME:   0.011 TIME LEFT:  2.00D  GRAD.:     6.500 HEAT:  64.55909
 CYCLE:   253 TIME:   0.024 TIME LEFT:  2.00D  GRAD.:     5.858 HEAT:  64.49399
 CYCLE:   254 TIME:   0.012 TIME LEFT:  2.00D  GRAD.:     6.856 HEAT:  64.43061
 CYCLE:   255 TIME:   0.015 TIME LEFT:  2.00D  GRAD.:     9.399 HEAT:  64.41531
 CYCLE:   256 TIME:   0.015 TIME LEFT:  2.00D  GRAD.:     6.267 HEAT:  64.33832
 CYCLE:   257 TIME:   0.015 TIME LEFT:  2.00D  GRAD.:     7.708 HEAT:  64.29453
 CYCLE:   258 TIME:   0.010 TIME LEFT:  2.00D  GRAD.:     9.168 HEAT:  64.26063
 CYCLE:   259 TIME:   0.015 TIME LEFT:  2.00D  GRAD.:     7.953 HEAT:  64.22259
 CYCLE:   260 TIME:   0.011 TIME LEFT:  2.00D  GRAD.:     7.004 HEAT:  64.16204
 CYCLE:   261 TIME:   0.012 TIME LEFT:  2.00D  GRAD.:     3.945 HEAT:  64.13909
 CYCLE:   262 TIME:   0.010 TIME LEFT:  2.00D  GRAD.:     3.145 HEAT:  64.12462
 CYCLE:   263 TIME:   0.012 TIME LEFT:  2.00D  GRAD.:     3.694 HEAT:  64.10988
 CYCLE:   264 TIME:   0.014 TIME LEFT:  2.00D  GRAD.:     3.427 HEAT:  64.09613
 CYCLE:   265 TIME:   0.015 TIME LEFT:  2.00D  GRAD.:     4.383 HEAT:  64.07315
 CYCLE:   266 TIME:   0.013 TIME LEFT:  2.00D  GRAD.:     5.728 HEAT:  64.06212
 CYCLE:   267 TIME:   0.011 TIME LEFT:  2.00D  GRAD.:     4.335 HEAT:  64.02834
 CYCLE:   268 TIME:   0.012 TIME LEFT:  2.00D  GRAD.:     4.216 HEAT:  64.00509
 CYCLE:   269 TIME:   0.010 TIME LEFT:  2.00D  GRAD.:     3.117 HEAT:  63.97771
 CYCLE:   270 TIME:   0.013 TIME LEFT:  2.00D  GRAD.:     4.016 HEAT:  63.94379
 CYCLE:   271 TIME:   0.011 TIME LEFT:  2.00D  GRAD.:     3.802 HEAT:  63.91479
 CYCLE:   272 TIME:   0.012 TIME LEFT:  2.00D  GRAD.:     4.737 HEAT:  63.89423
 CYCLE:   273 TIME:   0.012 TIME LEFT:  2.00D  GRAD.:     6.068 HEAT:  63.87198
 CYCLE:   274 TIME:   0.011 TIME LEFT:  2.00D  GRAD.:     3.893 HEAT:  63.84417
 CYCLE:   275 TIME:   0.013 TIME LEFT:  2.00D  GRAD.:     4.246 HEAT:  63.81807
 CYCLE:   276 TIME:   0.014 TIME LEFT:  2.00D  GRAD.:     3.922 HEAT:  63.79305
 CYCLE:   277 TIME:   0.031 TIME LEFT:  2.00D  GRAD.:     4.416 HEAT:  63.75142
 CYCLE:   278 TIME:   0.165 TIME LEFT:  2.00D  GRAD.:     3.629 HEAT:  63.74249
 CYCLE:   279 TIME:   0.014 TIME LEFT:  2.00D  GRAD.:     3.176 HEAT:  63.72215
 CYCLE:   280 TIME:   0.015 TIME LEFT:  2.00D  GRAD.:     3.458 HEAT:  63.70490
 CYCLE:   281 TIME:   0.015 TIME LEFT:  2.00D  GRAD.:     3.281 HEAT:  63.68388
 CYCLE:   282 TIME:   0.015 TIME LEFT:  2.00D  GRAD.:     3.071 HEAT:  63.66524
 CYCLE:   283 TIME:   0.014 TIME LEFT:  2.00D  GRAD.:     2.856 HEAT:  63.64610
 CYCLE:   284 TIME:   0.015 TIME LEFT:  2.00D  GRAD.:     2.895 HEAT:  63.62917
 CYCLE:   285 TIME:   0.015 TIME LEFT:  2.00D  GRAD.:     3.077 HEAT:  63.60889
 CYCLE:   286 TIME:   0.017 TIME LEFT:  2.00D  GRAD.:     5.060 HEAT:  63.59742
 CYCLE:   287 TIME:   0.014 TIME LEFT:  2.00D  GRAD.:     4.750 HEAT:  63.58676
 CYCLE:   288 TIME:   0.015 TIME LEFT:  2.00D  GRAD.:     2.527 HEAT:  63.56982
 CYCLE:   289 TIME:   0.012 TIME LEFT:  2.00D  GRAD.:     1.764 HEAT:  63.56193
 CYCLE:   290 TIME:   0.012 TIME LEFT:  2.00D  GRAD.:     2.245 HEAT:  63.55402
 CYCLE:   291 TIME:   0.015 TIME LEFT:  2.00D  GRAD.:     2.539 HEAT:  63.54443
 CYCLE:   292 TIME:   0.015 TIME LEFT:  2.00D  GRAD.:     2.876 HEAT:  63.53118
 CYCLE:   293 TIME:   0.010 TIME LEFT:  2.00D  GRAD.:     3.833 HEAT:  63.51337
 CYCLE:   294 TIME:   0.016 TIME LEFT:  2.00D  GRAD.:     4.102 HEAT:  63.49038
 CYCLE:   295 TIME:   0.014 TIME LEFT:  2.00D  GRAD.:     4.670 HEAT:  63.46996
 CYCLE:   296 TIME:   0.018 TIME LEFT:  2.00D  GRAD.:     6.217 HEAT:  63.44214
 CYCLE:   297 TIME:   0.014 TIME LEFT:  2.00D  GRAD.:     4.121 HEAT:  63.41613
 CYCLE:   298 TIME:   0.015 TIME LEFT:  2.00D  GRAD.:     5.296 HEAT:  63.38553
 CYCLE:   299 TIME:   0.011 TIME LEFT:  2.00D  GRAD.:     4.401 HEAT:  63.35663
 CYCLE:   300 TIME:   0.013 TIME LEFT:  2.00D  GRAD.:     4.633 HEAT:  63.32097
 CYCLE:   301 TIME:   0.018 TIME LEFT:  2.00D  GRAD.:     6.926 HEAT:  63.28705
 CYCLE:   302 TIME:   0.011 TIME LEFT:  2.00D  GRAD.:     5.286 HEAT:  63.24693
 CYCLE:   303 TIME:   0.011 TIME LEFT:  2.00D  GRAD.:     4.959 HEAT:  63.22074
 CYCLE:   304 TIME:   0.010 TIME LEFT:  2.00D  GRAD.:     4.698 HEAT:  63.19315
 CYCLE:   305 TIME:   0.011 TIME LEFT:  2.00D  GRAD.:     4.909 HEAT:  63.17757
 CYCLE:   306 TIME:   0.011 TIME LEFT:  2.00D  GRAD.:     3.260 HEAT:  63.15410
 CYCLE:   307 TIME:   0.011 TIME LEFT:  2.00D  GRAD.:     3.317 HEAT:  63.12560
 CYCLE:   308 TIME:   0.012 TIME LEFT:  2.00D  GRAD.:     4.978 HEAT:  63.10146
 CYCLE:   309 TIME:   0.021 TIME LEFT:  2.00D  GRAD.:     6.302 HEAT:  63.08375
 CYCLE:   310 TIME:   0.014 TIME LEFT:  2.00D  GRAD.:     6.197 HEAT:  63.06853
 CYCLE:   311 TIME:   0.020 TIME LEFT:  2.00D  GRAD.:     3.835 HEAT:  63.05349
 CYCLE:   312 TIME:   0.012 TIME LEFT:  2.00D  GRAD.:     2.854 HEAT:  63.03531
 CYCLE:   313 TIME:   0.012 TIME LEFT:  2.00D  GRAD.:     4.264 HEAT:  63.01376
 CYCLE:   314 TIME:   0.012 TIME LEFT:  2.00D  GRAD.:     5.711 HEAT:  62.98418
 CYCLE:   315 TIME:   0.013 TIME LEFT:  2.00D  GRAD.:     4.468 HEAT:  62.94689
 CYCLE:   316 TIME:   0.013 TIME LEFT:  2.00D  GRAD.:     4.743 HEAT:  62.92330
 CYCLE:   317 TIME:   0.011 TIME LEFT:  2.00D  GRAD.:     4.291 HEAT:  62.89557
 CYCLE:   318 TIME:   0.011 TIME LEFT:  2.00D  GRAD.:     4.760 HEAT:  62.87254
 CYCLE:   319 TIME:   0.011 TIME LEFT:  2.00D  GRAD.:     4.911 HEAT:  62.84611
 CYCLE:   320 TIME:   0.011 TIME LEFT:  2.00D  GRAD.:     5.561 HEAT:  62.82026
 CYCLE:   321 TIME:   0.010 TIME LEFT:  2.00D  GRAD.:     7.513 HEAT:  62.80723
 CYCLE:   322 TIME:   0.011 TIME LEFT:  2.00D  GRAD.:     4.098 HEAT:  62.76364
 CYCLE:   323 TIME:   0.011 TIME LEFT:  2.00D  GRAD.:     4.109 HEAT:  62.73193
 CYCLE:   324 TIME:   0.011 TIME LEFT:  2.00D  GRAD.:     5.431 HEAT:  62.68137
 CYCLE:   325 TIME:   0.010 TIME LEFT:  2.00D  GRAD.:     5.911 HEAT:  62.59596
 CYCLE:   326 TIME:   0.011 TIME LEFT:  2.00D  GRAD.:     8.777 HEAT:  62.54972
 CYCLE:   327 TIME:   0.011 TIME LEFT:  2.00D  GRAD.:     6.984 HEAT:  62.53808
 CYCLE:   328 TIME:   0.011 TIME LEFT:  2.00D  GRAD.:     6.266 HEAT:  62.49260
 CYCLE:   329 TIME:   0.010 TIME LEFT:  2.00D  GRAD.:     4.140 HEAT:  62.47013
 CYCLE:   330 TIME:   0.010 TIME LEFT:  2.00D  GRAD.:     4.082 HEAT:  62.45734
 CYCLE:   331 TIME:   0.011 TIME LEFT:  2.00D  GRAD.:     2.589 HEAT:  62.43388
 CYCLE:   332 TIME:   0.010 TIME LEFT:  2.00D  GRAD.:     3.053 HEAT:  62.40566
 CYCLE:   333 TIME:   0.011 TIME LEFT:  2.00D  GRAD.:     3.127 HEAT:  62.38102
 CYCLE:   334 TIME:   0.011 TIME LEFT:  2.00D  GRAD.:     3.524 HEAT:  62.36936
 CYCLE:   335 TIME:   0.011 TIME LEFT:  2.00D  GRAD.:     4.270 HEAT:  62.36509
 CYCLE:   336 TIME:   0.010 TIME LEFT:  2.00D  GRAD.:     2.932 HEAT:  62.34593
 CYCLE:   337 TIME:   0.010 TIME LEFT:  2.00D  GRAD.:     2.740 HEAT:  62.33678
 CYCLE:   338 TIME:   0.011 TIME LEFT:  2.00D  GRAD.:     2.472 HEAT:  62.32197
 CYCLE:   339 TIME:   0.011 TIME LEFT:  2.00D  GRAD.:     2.391 HEAT:  62.31324
 CYCLE:   340 TIME:   0.010 TIME LEFT:  2.00D  GRAD.:     2.771 HEAT:  62.30293
 CYCLE:   341 TIME:   0.011 TIME LEFT:  2.00D  GRAD.:     3.452 HEAT:  62.28659
 CYCLE:   342 TIME:   0.011 TIME LEFT:  2.00D  GRAD.:     3.314 HEAT:  62.26643
 CYCLE:   343 TIME:   0.011 TIME LEFT:  2.00D  GRAD.:     4.851 HEAT:  62.24051
 CYCLE:   344 TIME:   0.012 TIME LEFT:  2.00D  GRAD.:     3.792 HEAT:  62.21316
 CYCLE:   345 TIME:   0.011 TIME LEFT:  2.00D  GRAD.:     3.334 HEAT:  62.18142
 CYCLE:   346 TIME:   0.011 TIME LEFT:  2.00D  GRAD.:     6.388 HEAT:  62.17063
 CYCLE:   347 TIME:   0.011 TIME LEFT:  2.00D  GRAD.:     2.776 HEAT:  62.12274
 CYCLE:   348 TIME:   0.011 TIME LEFT:  2.00D  GRAD.:     3.515 HEAT:  62.09822
 CYCLE:   349 TIME:   0.010 TIME LEFT:  2.00D  GRAD.:     3.352 HEAT:  62.06617
 CYCLE:   350 TIME:   0.011 TIME LEFT:  2.00D  GRAD.:     4.984 HEAT:  62.02293
 CYCLE:   351 TIME:   0.011 TIME LEFT:  2.00D  GRAD.:     3.352 HEAT:  61.98794
 CYCLE:   352 TIME:   0.011 TIME LEFT:  2.00D  GRAD.:     3.148 HEAT:  61.94961
 CYCLE:   353 TIME:   0.014 TIME LEFT:  2.00D  GRAD.:     3.764 HEAT:  61.89732
 CYCLE:   354 TIME:   0.011 TIME LEFT:  2.00D  GRAD.:     4.262 HEAT:  61.84437
 CYCLE:   355 TIME:   0.011 TIME LEFT:  2.00D  GRAD.:     4.543 HEAT:  61.78908
 CYCLE:   356 TIME:   0.011 TIME LEFT:  2.00D  GRAD.:     5.456 HEAT:  61.71686
 CYCLE:   357 TIME:   0.010 TIME LEFT:  2.00D  GRAD.:     6.257 HEAT:  61.67994
 CYCLE:   358 TIME:   0.011 TIME LEFT:  2.00D  GRAD.:     6.485 HEAT:  61.59873
 CYCLE:   359 TIME:   0.011 TIME LEFT:  2.00D  GRAD.:    11.130 HEAT:  61.53829
 CYCLE:   360 TIME:   0.011 TIME LEFT:  2.00D  GRAD.:     7.580 HEAT:  61.46287
 CYCLE:   361 TIME:   0.010 TIME LEFT:  2.00D  GRAD.:     3.081 HEAT:  61.40002
 CYCLE:   362 TIME:   0.013 TIME LEFT:  2.00D  GRAD.:     5.653 HEAT:  61.37107
 CYCLE:   363 TIME:   0.011 TIME LEFT:  2.00D  GRAD.:     3.054 HEAT:  61.35314
 CYCLE:   364 TIME:   0.010 TIME LEFT:  2.00D  GRAD.:     2.428 HEAT:  61.34327
 CYCLE:   365 TIME:   0.011 TIME LEFT:  2.00D  GRAD.:     1.576 HEAT:  61.33587
 CYCLE:   366 TIME:   0.010 TIME LEFT:  2.00D  GRAD.:     1.386 HEAT:  61.33269
 CYCLE:   367 TIME:   0.011 TIME LEFT:  2.00D  GRAD.:     1.442 HEAT:  61.32987
 CYCLE:   368 TIME:   0.011 TIME LEFT:  2.00D  GRAD.:     1.949 HEAT:  61.32692
 CYCLE:   369 TIME:   0.010 TIME LEFT:  2.00D  GRAD.:     1.810 HEAT:  61.32216
 CYCLE:   370 TIME:   0.011 TIME LEFT:  2.00D  GRAD.:     1.578 HEAT:  61.31481
 CYCLE:   371 TIME:   0.011 TIME LEFT:  2.00D  GRAD.:     1.881 HEAT:  61.30733
 CYCLE:   372 TIME:   0.011 TIME LEFT:  2.00D  GRAD.:     1.564 HEAT:  61.30406
 CYCLE:   373 TIME:   0.010 TIME LEFT:  2.00D  GRAD.:     1.547 HEAT:  61.30029
 CYCLE:   374 TIME:   0.011 TIME LEFT:  2.00D  GRAD.:     1.785 HEAT:  61.29486
 CYCLE:   375 TIME:   0.011 TIME LEFT:  2.00D  GRAD.:     1.927 HEAT:  61.28860
 CYCLE:   376 TIME:   0.011 TIME LEFT:  2.00D  GRAD.:     1.756 HEAT:  61.28387
 CYCLE:   377 TIME:   0.010 TIME LEFT:  2.00D  GRAD.:     1.412 HEAT:  61.28086
 CYCLE:   378 TIME:   0.011 TIME LEFT:  2.00D  GRAD.:     1.349 HEAT:  61.27840
 CYCLE:   379 TIME:   0.011 TIME LEFT:  2.00D  GRAD.:     1.572 HEAT:  61.27402
 CYCLE:   380 TIME:   0.011 TIME LEFT:  2.00D  GRAD.:     2.314 HEAT:  61.26181
 CYCLE:   381 TIME:   0.011 TIME LEFT:  2.00D  GRAD.:     2.984 HEAT:  61.24529
 CYCLE:   382 TIME:   0.011 TIME LEFT:  2.00D  GRAD.:     3.662 HEAT:  61.22100
 CYCLE:   383 TIME:   0.010 TIME LEFT:  2.00D  GRAD.:     2.528 HEAT:  61.21069
 CYCLE:   384 TIME:   0.011 TIME LEFT:  2.00D  GRAD.:     2.002 HEAT:  61.19847
 CYCLE:   385 TIME:   0.010 TIME LEFT:  2.00D  GRAD.:     1.349 HEAT:  61.19392
 CYCLE:   386 TIME:   0.016 TIME LEFT:  2.00D  GRAD.:     1.779 HEAT:  61.18808
 CYCLE:   387 TIME:   0.011 TIME LEFT:  2.00D  GRAD.:     1.338 HEAT:  61.18627
 CYCLE:   388 TIME:   0.010 TIME LEFT:  2.00D  GRAD.:     1.104 HEAT:  61.18410
 CYCLE:   389 TIME:   0.011 TIME LEFT:  2.00D  GRAD.:     1.990 HEAT:  61.17934
 CYCLE:   390 TIME:   0.011 TIME LEFT:  2.00D  GRAD.:     1.778 HEAT:  61.17618
 CYCLE:   391 TIME:   0.011 TIME LEFT:  2.00D  GRAD.:     2.869 HEAT:  61.16440
 CYCLE:   392 TIME:   0.012 TIME LEFT:  2.00D  GRAD.:     2.040 HEAT:  61.15814
 CYCLE:   393 TIME:   0.010 TIME LEFT:  2.00D  GRAD.:     1.702 HEAT:  61.15180
 CYCLE:   394 TIME:   0.011 TIME LEFT:  2.00D  GRAD.:     1.503 HEAT:  61.14777
 CYCLE:   395 TIME:   0.011 TIME LEFT:  2.00D  GRAD.:     1.567 HEAT:  61.14336
 CYCLE:   396 TIME:   0.011 TIME LEFT:  2.00D  GRAD.:     1.167 HEAT:  61.14043
 CYCLE:   397 TIME:   0.011 TIME LEFT:  2.00D  GRAD.:     1.356 HEAT:  61.13591
 CYCLE:   398 TIME:   0.010 TIME LEFT:  2.00D  GRAD.:     1.693 HEAT:  61.13256
 CYCLE:   399 TIME:   0.011 TIME LEFT:  2.00D  GRAD.:     1.884 HEAT:  61.12638
 CYCLE:   400 TIME:   0.011 TIME LEFT:  2.00D  GRAD.:     2.114 HEAT:  61.11711
 CYCLE:   401 TIME:   0.011 TIME LEFT:  2.00D  GRAD.:     2.372 HEAT:  61.11256
 CYCLE:   402 TIME:   0.011 TIME LEFT:  2.00D  GRAD.:     1.493 HEAT:  61.10872
 CYCLE:   403 TIME:   0.011 TIME LEFT:  2.00D  GRAD.:     1.033 HEAT:  61.10676
 CYCLE:   404 TIME:   0.011 TIME LEFT:  2.00D  GRAD.:     2.109 HEAT:  61.10445
 CYCLE:   405 TIME:   0.010 TIME LEFT:  2.00D  GRAD.:     1.744 HEAT:  61.10099
 CYCLE:   406 TIME:   0.013 TIME LEFT:  2.00D  GRAD.:     1.683 HEAT:  61.09617
 CYCLE:   407 TIME:   0.011 TIME LEFT:  2.00D  GRAD.:     2.272 HEAT:  61.09175
 CYCLE:   408 TIME:   0.013 TIME LEFT:  2.00D  GRAD.:     1.681 HEAT:  61.08847
 CYCLE:   409 TIME:   0.013 TIME LEFT:  2.00D  GRAD.:     1.203 HEAT:  61.08459
 CYCLE:   410 TIME:   0.019 TIME LEFT:  2.00D  GRAD.:     1.426 HEAT:  61.08181
 CYCLE:   411 TIME:   0.011 TIME LEFT:  2.00D  GRAD.:     1.237 HEAT:  61.07948
 CYCLE:   412 TIME:   0.012 TIME LEFT:  2.00D  GRAD.:     1.395 HEAT:  61.07536
 CYCLE:   413 TIME:   0.012 TIME LEFT:  2.00D  GRAD.:     1.751 HEAT:  61.06981
 CYCLE:   414 TIME:   0.011 TIME LEFT:  2.00D  GRAD.:     3.165 HEAT:  61.05393
 CYCLE:   415 TIME:   0.010 TIME LEFT:  2.00D  GRAD.:     4.771 HEAT:  61.03532
 CYCLE:   416 TIME:   0.011 TIME LEFT:  2.00D  GRAD.:     6.335 HEAT:  60.96925
 CYCLE:   417 TIME:   0.011 TIME LEFT:  2.00D  GRAD.:    10.121 HEAT:  60.85892
 CYCLE:   418 TIME:   0.011 TIME LEFT:  2.00D  GRAD.:    11.710 HEAT:  60.76231
 CYCLE:   419 TIME:   0.030 TIME LEFT:  2.00D  GRAD.:     8.509 HEAT:  60.70557
 CYCLE:   420 TIME:   0.011 TIME LEFT:  2.00D  GRAD.:     6.181 HEAT:  60.65408
 CYCLE:   421 TIME:   0.016 TIME LEFT:  2.00D  GRAD.:     5.594 HEAT:  60.61303
 CYCLE:   422 TIME:   0.011 TIME LEFT:  2.00D  GRAD.:     3.778 HEAT:  60.56301
 CYCLE:   423 TIME:   0.011 TIME LEFT:  2.00D  GRAD.:     3.304 HEAT:  60.50584
 CYCLE:   424 TIME:   0.011 TIME LEFT:  2.00D  GRAD.:     6.242 HEAT:  60.42064
 CYCLE:   425 TIME:   0.013 TIME LEFT:  2.00D  GRAD.:    12.490 HEAT:  60.41149
 CYCLE:   426 TIME:   0.021 TIME LEFT:  2.00D  GRAD.:    10.439 HEAT:  60.32890
 CYCLE:   427 TIME:   0.021 TIME LEFT:  2.00D  GRAD.:     9.890 HEAT:  60.32205
 CYCLE:   428 TIME:   0.010 TIME LEFT:  2.00D  GRAD.:     4.450 HEAT:  60.22960
 CYCLE:   429 TIME:   0.011 TIME LEFT:  2.00D  GRAD.:     6.094 HEAT:  60.19528
 CYCLE:   430 TIME:   0.012 TIME LEFT:  2.00D  GRAD.:     6.727 HEAT:  60.13214
 CYCLE:   431 TIME:   0.011 TIME LEFT:  2.00D  GRAD.:     9.832 HEAT:  59.99720
 CYCLE:   432 TIME:   0.011 TIME LEFT:  2.00D  GRAD.:    16.146 HEAT:  59.87603
 CYCLE:   433 TIME:   0.011 TIME LEFT:  2.00D  GRAD.:    15.541 HEAT:  59.64026
 CYCLE:   434 TIME:   0.043 TIME LEFT:  2.00D  GRAD.:    12.845 HEAT:  59.48159
 CYCLE:   435 TIME:   0.022 TIME LEFT:  2.00D  GRAD.:    11.543 HEAT:  59.40709
 CYCLE:   436 TIME:   0.016 TIME LEFT:  2.00D  GRAD.:     4.799 HEAT:  59.29050
 CYCLE:   437 TIME:   0.117 TIME LEFT:  2.00D  GRAD.:     5.394 HEAT:  59.15936
 CYCLE:   438 TIME:   0.027 TIME LEFT:  2.00D  GRAD.:     7.249 HEAT:  58.88763
 CYCLE:   439 TIME:   0.015 TIME LEFT:  2.00D  GRAD.:    17.542 HEAT:  58.52362
 CYCLE:   440 TIME:   0.016 TIME LEFT:  2.00D  GRAD.:    19.273 HEAT:  58.05110
 CYCLE:   441 TIME:   0.036 TIME LEFT:  2.00D  GRAD.:    28.387 HEAT:  57.64374
 CYCLE:   442 TIME:   0.016 TIME LEFT:  2.00D  GRAD.:    21.802 HEAT:  56.59217
 CYCLE:   443 TIME:   0.084 TIME LEFT:  2.00D  GRAD.:    13.832 HEAT:  56.18786
 CYCLE:   444 TIME:   0.015 TIME LEFT:  2.00D  GRAD.:     6.667 HEAT:  55.94990
 CYCLE:   445 TIME:   0.012 TIME LEFT:  2.00D  GRAD.:     8.713 HEAT:  55.65065
 CYCLE:   446 TIME:   0.012 TIME LEFT:  2.00D  GRAD.:    10.533 HEAT:  54.98477
 CYCLE:   447 TIME:   0.068 TIME LEFT:  2.00D  GRAD.:     7.992 HEAT:  54.92989
 CYCLE:   448 TIME:   0.010 TIME LEFT:  2.00D  GRAD.:     5.128 HEAT:  54.85928
 CYCLE:   449 TIME:   0.011 TIME LEFT:  2.00D  GRAD.:     4.679 HEAT:  54.74671
 CYCLE:   450 TIME:   0.010 TIME LEFT:  2.00D  GRAD.:     6.251 HEAT:  54.53683
 CYCLE:   451 TIME:   0.011 TIME LEFT:  2.00D  GRAD.:    10.486 HEAT:  54.49085
 CYCLE:   452 TIME:   0.011 TIME LEFT:  2.00D  GRAD.:    12.289 HEAT:  53.88108
 CYCLE:   453 TIME:   0.011 TIME LEFT:  2.00D  GRAD.:    16.074 HEAT:  53.79156
 CYCLE:   454 TIME:   0.011 TIME LEFT:  2.00D  GRAD.:    20.280 HEAT:  52.48662
 CYCLE:   455 TIME:   0.011 TIME LEFT:  2.00D  GRAD.:    32.532 HEAT:  50.76156
 CYCLE:   456 TIME:   0.022 TIME LEFT:  2.00D  GRAD.:    41.157 HEAT:  49.86060
 CYCLE:   457 TIME:   0.033 TIME LEFT:  2.00D  GRAD.:    41.853 HEAT:  49.54802
 CYCLE:   458 TIME:   0.011 TIME LEFT:  2.00D  GRAD.:    37.960 HEAT:  49.18142
 CYCLE:   459 TIME:   0.011 TIME LEFT:  2.00D  GRAD.:    34.124 HEAT:  48.89951
 CYCLE:   460 TIME:   0.011 TIME LEFT:  2.00D  GRAD.:    30.173 HEAT:  48.73464
 CYCLE:   461 TIME:   0.021 TIME LEFT:  2.00D  GRAD.:    32.418 HEAT:  48.64840
 CYCLE:   462 TIME:   0.011 TIME LEFT:  2.00D  GRAD.:    23.087 HEAT:  48.30178
 CYCLE:   463 TIME:   0.011 TIME LEFT:  2.00D  GRAD.:    17.157 HEAT:  48.14097
 CYCLE:   464 TIME:   0.011 TIME LEFT:  2.00D  GRAD.:    14.824 HEAT:  48.04865
 CYCLE:   465 TIME:   0.032 TIME LEFT:  2.00D  GRAD.:    14.796 HEAT:  47.99732
 CYCLE:   466 TIME:   0.054 TIME LEFT:  2.00D  GRAD.:    10.941 HEAT:  47.93193
 CYCLE:   467 TIME:   0.024 TIME LEFT:  2.00D  GRAD.:     9.101 HEAT:  47.87366
 CYCLE:   468 TIME:   0.011 TIME LEFT:  2.00D  GRAD.:     8.239 HEAT:  47.85272
 CYCLE:   469 TIME:   0.012 TIME LEFT:  2.00D  GRAD.:     8.091 HEAT:  47.83101
 CYCLE:   470 TIME:   0.020 TIME LEFT:  2.00D  GRAD.:    10.548 HEAT:  47.81780
 CYCLE:   471 TIME:   0.020 TIME LEFT:  2.00D  GRAD.:     8.597 HEAT:  47.71924
 CYCLE:   472 TIME:   0.020 TIME LEFT:  2.00D  GRAD.:    11.305 HEAT:  47.63549
 CYCLE:   473 TIME:   0.018 TIME LEFT:  2.00D  GRAD.:    10.966 HEAT:  47.51167
 CYCLE:   474 TIME:   0.022 TIME LEFT:  2.00D  GRAD.:     7.744 HEAT:  47.27835
 CYCLE:   475 TIME:   0.020 TIME LEFT:  2.00D  GRAD.:     6.775 HEAT:  47.16536
 CYCLE:   476 TIME:   0.020 TIME LEFT:  2.00D  GRAD.:     6.857 HEAT:  47.06700
 CYCLE:   477 TIME:   0.018 TIME LEFT:  2.00D  GRAD.:     7.735 HEAT:  47.05528
 CYCLE:   478 TIME:   0.042 TIME LEFT:  2.00D  GRAD.:     6.772 HEAT:  47.00572
 CYCLE:   479 TIME:   0.011 TIME LEFT:  2.00D  GRAD.:     5.050 HEAT:  46.98281
 CYCLE:   480 TIME:   0.010 TIME LEFT:  2.00D  GRAD.:     4.807 HEAT:  46.96293
 CYCLE:   481 TIME:   0.012 TIME LEFT:  2.00D  GRAD.:     5.635 HEAT:  46.93404
 CYCLE:   482 TIME:   0.010 TIME LEFT:  2.00D  GRAD.:     6.527 HEAT:  46.89551
 CYCLE:   483 TIME:   0.012 TIME LEFT:  2.00D  GRAD.:     9.553 HEAT:  46.82307
 CYCLE:   484 TIME:   0.010 TIME LEFT:  2.00D  GRAD.:     6.578 HEAT:  46.76107
 CYCLE:   485 TIME:   0.011 TIME LEFT:  2.00D  GRAD.:     5.690 HEAT:  46.68913
 CYCLE:   486 TIME:   0.011 TIME LEFT:  2.00D  GRAD.:     6.024 HEAT:  46.59384
 CYCLE:   487 TIME:   0.011 TIME LEFT:  2.00D  GRAD.:     4.806 HEAT:  46.57448
 CYCLE:   488 TIME:   0.010 TIME LEFT:  2.00D  GRAD.:     3.335 HEAT:  46.56161
 CYCLE:   489 TIME:   0.011 TIME LEFT:  2.00D  GRAD.:     2.401 HEAT:  46.54998
 CYCLE:   490 TIME:   0.011 TIME LEFT:  2.00D  GRAD.:     1.836 HEAT:  46.54287
 CYCLE:   491 TIME:   0.010 TIME LEFT:  2.00D  GRAD.:     1.692 HEAT:  46.53849
 CYCLE:   492 TIME:   0.011 TIME LEFT:  2.00D  GRAD.:     1.615 HEAT:  46.53521
 CYCLE:   493 TIME:   0.011 TIME LEFT:  2.00D  GRAD.:     1.677 HEAT:  46.53034
 CYCLE:   494 TIME:   0.011 TIME LEFT:  2.00D  GRAD.:     1.848 HEAT:  46.52530
 CYCLE:   495 TIME:   0.010 TIME LEFT:  2.00D  GRAD.:     1.852 HEAT:  46.51918
 CYCLE:   496 TIME:   0.011 TIME LEFT:  2.00D  GRAD.:     2.074 HEAT:  46.51101
 CYCLE:   497 TIME:   0.011 TIME LEFT:  2.00D  GRAD.:     1.722 HEAT:  46.50310
 CYCLE:   498 TIME:   0.010 TIME LEFT:  2.00D  GRAD.:     1.727 HEAT:  46.49457
 CYCLE:   499 TIME:   0.012 TIME LEFT:  2.00D  GRAD.:     1.815 HEAT:  46.48631
 CYCLE:   500 TIME:   0.011 TIME LEFT:  2.00D  GRAD.:     1.979 HEAT:  46.47649
 CYCLE:   501 TIME:   0.010 TIME LEFT:  2.00D  GRAD.:     2.092 HEAT:  46.46872
 CYCLE:   502 TIME:   0.011 TIME LEFT:  2.00D  GRAD.:     2.244 HEAT:  46.46321
 CYCLE:   503 TIME:   0.013 TIME LEFT:  2.00D  GRAD.:     2.947 HEAT:  46.45681
 CYCLE:   504 TIME:   0.011 TIME LEFT:  2.00D  GRAD.:     3.913 HEAT:  46.44678
 CYCLE:   505 TIME:   0.011 TIME LEFT:  2.00D  GRAD.:     7.286 HEAT:  46.42384
 CYCLE:   506 TIME:   0.010 TIME LEFT:  2.00D  GRAD.:     6.165 HEAT:  46.39660
 CYCLE:   507 TIME:   0.011 TIME LEFT:  2.00D  GRAD.:     5.971 HEAT:  46.36250
 CYCLE:   508 TIME:   0.010 TIME LEFT:  2.00D  GRAD.:     3.937 HEAT:  46.33924
 CYCLE:   509 TIME:   0.011 TIME LEFT:  2.00D  GRAD.:     3.431 HEAT:  46.32643
 CYCLE:   510 TIME:   0.011 TIME LEFT:  2.00D  GRAD.:     3.935 HEAT:  46.31191
 CYCLE:   511 TIME:   0.011 TIME LEFT:  2.00D  GRAD.:     4.186 HEAT:  46.30807
 CYCLE:   512 TIME:   0.011 TIME LEFT:  2.00D  GRAD.:     4.845 HEAT:  46.29480
 CYCLE:   513 TIME:   0.010 TIME LEFT:  2.00D  GRAD.:     4.557 HEAT:  46.28726
 CYCLE:   514 TIME:   0.010 TIME LEFT:  2.00D  GRAD.:     3.302 HEAT:  46.27738
 CYCLE:   515 TIME:   0.012 TIME LEFT:  2.00D  GRAD.:     5.709 HEAT:  46.24819
 CYCLE:   516 TIME:   0.014 TIME LEFT:  2.00D  GRAD.:    12.283 HEAT:  46.19553
 CYCLE:   517 TIME:   0.011 TIME LEFT:  2.00D  GRAD.:    15.676 HEAT:  46.07149
 CYCLE:   518 TIME:   0.011 TIME LEFT:  2.00D  GRAD.:    16.962 HEAT:  45.95394
 CYCLE:   519 TIME:   0.014 TIME LEFT:  2.00D  GRAD.:    24.130 HEAT:  45.57973
 CYCLE:   520 TIME:   0.031 TIME LEFT:  2.00D  GRAD.:    26.194 HEAT:  45.51465
 CYCLE:   521 TIME:   0.011 TIME LEFT:  2.00D  GRAD.:    12.216 HEAT:  45.22076
 CYCLE:   522 TIME:   0.021 TIME LEFT:  2.00D  GRAD.:     7.692 HEAT:  45.11109
 CYCLE:   523 TIME:   0.011 TIME LEFT:  2.00D  GRAD.:    11.721 HEAT:  45.06864
 CYCLE:   524 TIME:   0.011 TIME LEFT:  2.00D  GRAD.:    13.754 HEAT:  45.05918
 CYCLE:   525 TIME:   0.010 TIME LEFT:  2.00D  GRAD.:     6.964 HEAT:  44.98137
 CYCLE:   526 TIME:   0.011 TIME LEFT:  2.00D  GRAD.:     7.765 HEAT:  44.98023
 CYCLE:   527 TIME:   0.011 TIME LEFT:  2.00D  GRAD.:     7.759 HEAT:  44.91852
 CYCLE:   528 TIME:   0.020 TIME LEFT:  2.00D  GRAD.:     6.343 HEAT:  44.90715
 CYCLE:   529 TIME:   0.011 TIME LEFT:  2.00D  GRAD.:     6.030 HEAT:  44.87927
 CYCLE:   530 TIME:   0.010 TIME LEFT:  2.00D  GRAD.:     6.645 HEAT:  44.85306
 CYCLE:   531 TIME:   0.011 TIME LEFT:  2.00D  GRAD.:     7.450 HEAT:  44.80938
 CYCLE:   532 TIME:   0.011 TIME LEFT:  2.00D  GRAD.:     7.357 HEAT:  44.74972
 CYCLE:   533 TIME:   0.031 TIME LEFT:  2.00D  GRAD.:     7.804 HEAT:  44.74080
 CYCLE:   534 TIME:   0.022 TIME LEFT:  2.00D  GRAD.:     5.995 HEAT:  44.71332
 CYCLE:   535 TIME:   0.011 TIME LEFT:  2.00D  GRAD.:     3.938 HEAT:  44.68461
 CYCLE:   536 TIME:   0.010 TIME LEFT:  2.00D  GRAD.:     2.935 HEAT:  44.67089
 CYCLE:   537 TIME:   0.011 TIME LEFT:  2.00D  GRAD.:     2.832 HEAT:  44.64488
 CYCLE:   538 TIME:   0.012 TIME LEFT:  2.00D  GRAD.:     3.412 HEAT:  44.61024
 CYCLE:   539 TIME:   0.015 TIME LEFT:  2.00D  GRAD.:     4.156 HEAT:  44.57115
 CYCLE:   540 TIME:   0.013 TIME LEFT:  2.00D  GRAD.:     5.448 HEAT:  44.51251
 CYCLE:   541 TIME:   0.011 TIME LEFT:  2.00D  GRAD.:     5.327 HEAT:  44.45608
 CYCLE:   542 TIME:   0.013 TIME LEFT:  2.00D  GRAD.:     5.740 HEAT:  44.40857
 CYCLE:   543 TIME:   0.022 TIME LEFT:  2.00D  GRAD.:     5.112 HEAT:  44.35605
 CYCLE:   544 TIME:   0.011 TIME LEFT:  2.00D  GRAD.:     5.264 HEAT:  44.31217
 CYCLE:   545 TIME:   0.023 TIME LEFT:  2.00D  GRAD.:     5.658 HEAT:  44.25881
 CYCLE:   546 TIME:   0.042 TIME LEFT:  2.00D  GRAD.:     7.086 HEAT:  44.25504
 CYCLE:   547 TIME:   0.018 TIME LEFT:  2.00D  GRAD.:     2.457 HEAT:  44.21365
 CYCLE:   548 TIME:   0.011 TIME LEFT:  2.00D  GRAD.:     2.520 HEAT:  44.19813
 CYCLE:   549 TIME:   0.010 TIME LEFT:  2.00D  GRAD.:     2.031 HEAT:  44.17820
 CYCLE:   550 TIME:   0.011 TIME LEFT:  2.00D  GRAD.:     3.501 HEAT:  44.15518
 CYCLE:   551 TIME:   0.014 TIME LEFT:  2.00D  GRAD.:     3.389 HEAT:  44.13367
 CYCLE:   552 TIME:   0.015 TIME LEFT:  2.00D  GRAD.:     3.286 HEAT:  44.12615
 CYCLE:   553 TIME:   0.014 TIME LEFT:  2.00D  GRAD.:     2.493 HEAT:  44.11078
 CYCLE:   554 TIME:   0.015 TIME LEFT:  2.00D  GRAD.:     3.918 HEAT:  44.10393
 CYCLE:   555 TIME:   0.014 TIME LEFT:  2.00D  GRAD.:     3.089 HEAT:  44.08924
 CYCLE:   556 TIME:   0.012 TIME LEFT:  2.00D  GRAD.:     3.711 HEAT:  44.07724
 CYCLE:   557 TIME:   0.011 TIME LEFT:  2.00D  GRAD.:     3.959 HEAT:  44.06427
 CYCLE:   558 TIME:   0.011 TIME LEFT:  2.00D  GRAD.:     3.247 HEAT:  44.04597
 CYCLE:   559 TIME:   0.012 TIME LEFT:  2.00D  GRAD.:     3.772 HEAT:  44.02369
 CYCLE:   560 TIME:   0.011 TIME LEFT:  2.00D  GRAD.:     4.122 HEAT:  44.00517
 CYCLE:   561 TIME:   0.034 TIME LEFT:  2.00D  GRAD.:     3.790 HEAT:  43.98328
 CYCLE:   562 TIME:   0.011 TIME LEFT:  2.00D  GRAD.:     3.402 HEAT:  43.95536
 CYCLE:   563 TIME:   0.012 TIME LEFT:  2.00D  GRAD.:     3.095 HEAT:  43.93716
 CYCLE:   564 TIME:   0.010 TIME LEFT:  2.00D  GRAD.:     3.634 HEAT:  43.92453
 CYCLE:   565 TIME:   0.011 TIME LEFT:  2.00D  GRAD.:     5.325 HEAT:  43.92391
 CYCLE:   566 TIME:   0.011 TIME LEFT:  2.00D  GRAD.:     3.428 HEAT:  43.91182
 CYCLE:   567 TIME:   0.011 TIME LEFT:  2.00D  GRAD.:     4.077 HEAT:  43.90236
 CYCLE:   568 TIME:   0.010 TIME LEFT:  2.00D  GRAD.:     3.706 HEAT:  43.88892
 CYCLE:   569 TIME:   0.011 TIME LEFT:  2.00D  GRAD.:     4.380 HEAT:  43.87280
 CYCLE:   570 TIME:   0.010 TIME LEFT:  2.00D  GRAD.:     4.783 HEAT:  43.85054
 CYCLE:   571 TIME:   0.011 TIME LEFT:  2.00D  GRAD.:     4.969 HEAT:  43.81559
 CYCLE:   572 TIME:   0.011 TIME LEFT:  2.00D  GRAD.:     5.447 HEAT:  43.77752
 CYCLE:   573 TIME:   0.011 TIME LEFT:  2.00D  GRAD.:     3.928 HEAT:  43.74523
 CYCLE:   574 TIME:   0.011 TIME LEFT:  2.00D  GRAD.:     3.798 HEAT:  43.70915
 CYCLE:   575 TIME:   0.011 TIME LEFT:  2.00D  GRAD.:     4.470 HEAT:  43.67880
 CYCLE:   576 TIME:   0.011 TIME LEFT:  2.00D  GRAD.:     5.236 HEAT:  43.64994
 CYCLE:   577 TIME:   0.010 TIME LEFT:  2.00D  GRAD.:     4.585 HEAT:  43.60578
 CYCLE:   578 TIME:   0.011 TIME LEFT:  2.00D  GRAD.:     5.411 HEAT:  43.56447
 CYCLE:   579 TIME:   0.011 TIME LEFT:  2.00D  GRAD.:     4.615 HEAT:  43.52729
 CYCLE:   580 TIME:   0.011 TIME LEFT:  2.00D  GRAD.:     3.632 HEAT:  43.49794
 CYCLE:   581 TIME:   0.011 TIME LEFT:  2.00D  GRAD.:     4.037 HEAT:  43.46750
 CYCLE:   582 TIME:   0.012 TIME LEFT:  2.00D  GRAD.:     4.594 HEAT:  43.43562
 CYCLE:   583 TIME:   0.011 TIME LEFT:  2.00D  GRAD.:     5.516 HEAT:  43.41485
 CYCLE:   584 TIME:   0.022 TIME LEFT:  2.00D  GRAD.:     3.602 HEAT:  43.36996
 CYCLE:   585 TIME:   0.011 TIME LEFT:  2.00D  GRAD.:     3.677 HEAT:  43.33404
 CYCLE:   586 TIME:   0.011 TIME LEFT:  2.00D  GRAD.:     3.508 HEAT:  43.28503
 CYCLE:   587 TIME:   0.014 TIME LEFT:  2.00D  GRAD.:     4.816 HEAT:  43.23370
 CYCLE:   588 TIME:   0.011 TIME LEFT:  2.00D  GRAD.:     3.287 HEAT:  43.20909
 CYCLE:   589 TIME:   0.014 TIME LEFT:  2.00D  GRAD.:     2.838 HEAT:  43.19458
 CYCLE:   590 TIME:   0.012 TIME LEFT:  2.00D  GRAD.:     1.605 HEAT:  43.18828
 CYCLE:   591 TIME:   0.010 TIME LEFT:  2.00D  GRAD.:     1.458 HEAT:  43.18574
 CYCLE:   592 TIME:   0.011 TIME LEFT:  2.00D  GRAD.:     1.315 HEAT:  43.18286
 CYCLE:   593 TIME:   0.011 TIME LEFT:  2.00D  GRAD.:     1.287 HEAT:  43.18006
 CYCLE:   594 TIME:   0.011 TIME LEFT:  2.00D  GRAD.:     1.355 HEAT:  43.17558
 CYCLE:   595 TIME:   0.010 TIME LEFT:  2.00D  GRAD.:     1.615 HEAT:  43.17204
 CYCLE:   596 TIME:   0.012 TIME LEFT:  2.00D  GRAD.:     2.117 HEAT:  43.16505
 CYCLE:   597 TIME:   0.011 TIME LEFT:  2.00D  GRAD.:     1.601 HEAT:  43.16036
 CYCLE:   598 TIME:   0.011 TIME LEFT:  2.00D  GRAD.:     1.920 HEAT:  43.15735
 CYCLE:   599 TIME:   0.011 TIME LEFT:  2.00D  GRAD.:     1.283 HEAT:  43.15387
 CYCLE:   600 TIME:   0.011 TIME LEFT:  2.00D  GRAD.:     0.915 HEAT:  43.15286

     GRADIENT =  0.91499 IS LESS THAN CUTOFF =  1.00000



 -------------------------------------------------------------------------------
 AUX LARGE CHARGE=2 DOUBLET  PM6
 Cu



     GEOMETRY OPTIMISED USING EIGENVECTOR FOLLOWING (EF).     
     SCF FIELD WAS ACHIEVED                                   


                              PM6 CALCULATION
                                                       MOPAC2016 (Version: 20.225L)
                                                       Sun Jan 31 00:22:09 2021
                                                       No. of days remaining = 194




          FINAL HEAT OF FORMATION =         43.15286 KCAL/MOL =     180.55157 KJ/MOL


          TOTAL ENERGY            =      -2558.55894 EV
          ELECTRONIC ENERGY       =      -6923.71749 EV  POINT GROUP:     C1  
          CORE-CORE REPULSION     =       4365.15855 EV
          COSMO AREA              =        200.63 SQUARE ANGSTROMS
          COSMO VOLUME            =        149.71 CUBIC ANGSTROMS

          GRADIENT NORM           =          0.91499 = 0.20991 PER ATOM
          IONIZATION POTENTIAL    =         15.002340 EV
          ALPHA SOMO LUMO (EV)    =        -15.002 -4.720
          BETA  SOMO LUMO (EV)    =        -15.002 -7.403
          NO. OF ALPHA ELECTRONS  =         29
          NO. OF BETA  ELECTRONS  =         28
          MOLECULAR WEIGHT        =        171.6372

          MOLECULAR DIMENSIONS (Angstroms)

            Atom       Atom       Distance
            H    16    H     9    52.79268
            H     6    H    19     4.85608
            O    17    H    10     2.67079


          SCF CALCULATIONS        =        644
 
          WALL-CLOCK TIME         =          9.186 SECONDS
          COMPUTATION TIME        =  1 MINUTE AND 47.947 SECONDS




   ATOM   CHEMICAL          X               Y               Z
  NUMBER   SYMBOL      (ANGSTROMS)     (ANGSTROMS)     (ANGSTROMS)
 
     1      Cu         16.30645642  *  -5.08571274  *  -4.54110845  *
     2       O        -27.68213546  *   8.55480822  *   6.16796813  *
     3       H        -26.84092992  *   9.02340798  *   6.01925036  *
     4       H        -27.50513200  *   7.62230081  *   5.94925449  *
     5       O         15.65953214  *  -3.29122954  *  -5.15215015  *
     6       H         16.08083542  *  -2.43890530  *  -4.99296644  *
     7       H         14.83275223  *  -3.11038934  *  -5.61306256  *
     8       O         17.54326421  *  -6.58478211  *  -5.12894055  *
     9       H         18.48975470  *  -6.46675827  *  -5.31127177  *
    10       H         17.25287344  *  -7.30146121  *  -5.71726515  *
    11       O         16.13725903  *  -6.55970437  *  -3.18985778  *
    12       H         15.59672607  *  -6.56195596  *  -2.39140062  *
    13       H         16.81879669  *  -7.23446218  *  -3.06975823  *
    14       O        -30.03948765  *   9.31891716  *   6.05850050  *
    15       H        -29.16205949  *   9.23411416  *   5.50337198  *
    16       H        -30.32550445  *  10.26654107  *   5.83030308  *
    17       O        -29.31552500  *   9.69186341  *   7.64807200  *
    18       H        -28.57674226  *   8.96116582  *   7.66002432  *
    19       H        -30.03781337  *   9.25338640  *   8.21292520  *

                             CARTESIAN COORDINATES

   1   Cu       16.306456420    -5.085712740    -4.541108447
   2    O      -27.682135461     8.554808218     6.167968134
   3    H      -26.840929919     9.023407983     6.019250359
   4    H      -27.505131997     7.622300809     5.949254493
   5    O       15.659532143    -3.291229542    -5.152150146
   6    H       16.080835416    -2.438905304    -4.992966439
   7    H       14.832752231    -3.110389339    -5.613062562
   8    O       17.543264206    -6.584782111    -5.128940555
   9    H       18.489754703    -6.466758267    -5.311271768
  10    H       17.252873440    -7.301461215    -5.717265152
  11    O       16.137259026    -6.559704372    -3.189857780
  12    H       15.596726069    -6.561955959    -2.391400616
  13    H       16.818796694    -7.234462181    -3.069758231
  14    O      -30.039487655     9.318917162     6.058500500
  15    H      -29.162059488     9.234114156     5.503371978
  16    H      -30.325504447    10.266541072     5.830303084
  17    O      -29.315525000     9.691863408     7.648072001
  18    H      -28.576742262     8.961165816     7.660024319
  19    H      -30.037813367     9.253386395     8.212925202


           Empirical Formula: H12 O6 Cu  =    19 atoms



      MOLECULAR POINT GROUP   :   C1  


          ALPHA EIGENVALUES  
 -38.71459 -37.92065 -35.85085 -35.79869 -35.20568 -34.95547 -25.81583 -24.59604
 -24.15663 -24.13559 -24.06481 -23.80522 -23.34644 -22.69507 -22.23901 -21.57672
 -20.29584 -20.14551 -19.95006 -18.23432 -17.99987 -17.78464 -17.53636 -17.40557
 -15.91087 -15.80842 -15.72921 -15.46002 -15.00234  -4.71985  -3.93539  -2.49540
  -1.78918  -1.18720  -1.14652  -0.78911  -0.55571   0.15948   0.44458   0.74622
   0.85487   1.07185 119.80930 119.90297 120.09976


           BETA EIGENVALUES 
 -36.57782 -35.85085 -35.64790 -35.60908 -35.20568 -34.95547 -25.19450 -24.57306
 -24.15663 -24.13559 -23.80522 -23.38651 -22.23899 -21.75095 -21.09420 -20.45978
 -20.29584 -19.95004 -19.25324 -18.05285 -17.78465 -17.53636 -17.40556 -15.91092
 -15.80843 -15.72921 -15.46003 -15.00234  -7.40278  -4.71985  -3.38492  -2.16484
  -1.63070  -1.14652  -0.94864  -0.67628  -0.55572   0.14977   0.44459   0.74622
   0.85488   1.07186 119.80928 119.90291 120.09983


              NET ATOMIC CHARGES AND DIPOLE CONTRIBUTIONS

  ATOM NO.   TYPE          CHARGE      No. of ELECS.   s-Pop       p-Pop       d-Pop       
    1         Cu           0.690456       10.3095     0.35545     0.00082     9.95328
    2          O          -0.657850        6.6578     1.76550     4.89235
    3          H           0.356898        0.6431     0.64310
    4          H           0.357029        0.6430     0.64297
    5          O          -0.602246        6.6022     1.69831     4.90394
    6          H           0.353229        0.6468     0.64677
    7          H           0.353331        0.6467     0.64667
    8          O          -0.588810        6.5888     1.72453     4.86428
    9          H           0.343836        0.6562     0.65616
   10          H           0.344636        0.6554     0.65536
   11          O          -0.588392        6.5884     1.70618     4.88221
   12          H           0.346192        0.6538     0.65381
   13          H           0.347768        0.6522     0.65223
   14          O          -0.206823        6.2068     1.85533     4.35149
   15          H           0.345402        0.6546     0.65460
   16          H           0.332730        0.6673     0.66727
   17          O          -0.205723        6.2057     1.85457     4.35116
   18          H           0.345022        0.6550     0.65498
   19          H           0.333316        0.6667     0.66668
 DIPOLE           X         Y         Z       TOTAL
 POINT-CHG.   -80.156    25.626    19.509    86.385
 HYBRID         0.551    -0.230    -0.208     0.633
 SUM          -79.605    25.396    19.300    85.758


          ATOMIC ORBITAL ELECTRON POPULATIONS

     Atom    s        px        py        pz      x^2-y^2     xz        z^2       yz        xy
    1 Cu   0.35545   0.00014   0.00050   0.00019   1.98851   1.99800   1.99563   1.98457   1.98657
    2  O   1.76550   1.54396   1.42111   1.92727
    3  H   0.64310
    4  H   0.64297
    5  O   1.69831   1.53164   1.50786   1.86444
    6  H   0.64677
    7  H   0.64667
    8  O   1.72453   1.43635   1.66660   1.76134
    9  H   0.65616
   10  H   0.65536
   11  O   1.70618   1.59530   1.69987   1.58704
   12  H   0.65381
   13  H   0.65223
   14  O   1.85533   1.45380   1.43385   1.46384
   15  H   0.65460
   16  H   0.66727
   17  O   1.85457   1.40158   1.49452   1.45506
   18  H   0.65498
   19  H   0.66668


                    (SZ)    =    0.500000
                    (S**2)  =    0.762145


          ATOMIC ORBITAL SPIN POPULATIONS

    Atom   Total    s     px     py     pz   x^2-y^2  xz     z^2    yz     xy
         Atomic
    1 Cu -0.0000 -0.000  0.000 -0.000 -0.000  0.000 -0.000  0.000  0.000 -0.000
    2  O -0.0042 -0.002 -0.000 -0.000 -0.002
    3  H -0.0009 -0.001
    4  H -0.0009 -0.001
    5  O  0.0000  0.000  0.000 -0.000 -0.000
    6  H  0.0000  0.000
    7  H  0.0000  0.000
    8  O -0.0000 -0.000 -0.000  0.000 -0.000
    9  H -0.0000 -0.000
   10  H -0.0000 -0.000
   11  O  0.0000  0.000  0.000  0.000 -0.000
   12  H  0.0000  0.000
   13  H  0.0000  0.000
   14  O  0.5853  0.018  0.171  0.099  0.297
   15  H -0.0397 -0.040
   16  H -0.0412 -0.041
   17  O  0.5822  0.018  0.113  0.122  0.329
   18  H -0.0396 -0.040
   19  H -0.0410 -0.041

 **********************
 *                    *
 * JOB ENDED NORMALLY *
 *                    *
 **********************



 TOTAL JOB TIME:             9.19 SECONDS

 == MOPAC DONE ==
