 *******************************************************************************
 ** Site#: 30659        For non-commercial use only    Version 20.225L 64BITS **
 *******************************************************************************
 ** Cite this program as: MOPAC2016, Version: 20.225L, James J. P. Stewart,   **
 ** Stewart Computational Chemistry, web: HTTP://OpenMOPAC.net. Days left: 295**
 *******************************************************************************
 **                                                                           **
 **                                MOPAC2016                                  **
 **                                                                           **
 *******************************************************************************

                              PM7 CALCULATION RESULTS

 *******************************************************************************
 *  CALCULATION DONE:                                Thu Oct 22 08:51:07 2020  *
 *  PM7        - The PM7 Hamiltonian to be used
 *  SINGLET    - SPIN STATE DEFINED AS A SINGLET
 *
 *
 *
 *                 CHARGE ON SYSTEM = 0
 *
 *
 *
 *  T=         - A TIME OF 172800.0 SECONDS REQUESTED
 *  DUMP=N     - RESTART FILE WRITTEN EVERY 7200.0 SECONDS REQUESTED
 *  AUX        - OUTPUT AUXILIARY INFORMATION
 *  LARGE      - EXPANDED OUTPUT TO BE PRINTED
 *******************************************************************************
 AUX LARGE CHARGE=0 SINGLET  PM7
 BeF2

   ATOM   CHEMICAL          X               Y               Z
  NUMBER   SYMBOL      (ANGSTROMS)     (ANGSTROMS)     (ANGSTROMS)
 
     1      Be         -0.56166000  *   0.70056000  *   0.00000000  *
     2       F          0.61234000  *   0.70056000  *   0.00000000  *
     3       F         -1.73566000  *   0.70056000  *   0.00000000  *
 


          CARTESIAN COORDINATES 

    NO.       ATOM           X           Y           Z

     1        Be         -0.5617      0.7006      0.0000
     2         F          0.6123      0.7006      0.0000
     3         F         -1.7357      0.7006      0.0000

 General Reference for PM7:
 "Optimization of Parameters for Semiempirical Methods VI: More Modifications to the 
 NDDO Approximations and Re-optimization of Parameters", J. J. P. Stewart, J. Mol. Mod., 1:32, 19 (2013)
 https://link.springer.com/article/10.1007/s00894-012-1667-x

           Empirical Formula: Be F2  =     3 atoms



      MOLECULAR POINT GROUP   :   D*h 


 SINGLET STATE CALCULATION


      RHF CALCULATION, NO. OF DOUBLY OCCUPIED LEVELS = 8


          Geometry optimization using EF

          DIAGONAL MATRIX USED AS START HESSIAN

 CYCLE:     1 TIME:   0.059 TIME LEFT:  2.00D  GRAD.:   431.395 HEAT: -135.8019
 CYCLE:     2 TIME:   0.006 TIME LEFT:  2.00D  GRAD.:    67.617 HEAT: -181.6052
 CYCLE:     3 TIME:   0.000 TIME LEFT:  2.00D  GRAD.:    23.709 HEAT: -183.2839
 CYCLE:     4 TIME:   0.000 TIME LEFT:  2.00D  GRAD.:     2.330 HEAT: -183.5414
 CYCLE:     5 TIME:   0.002 TIME LEFT:  2.00D  GRAD.:     0.029 HEAT: -183.5440

     GRADIENT =  0.02877 IS LESS THAN CUTOFF =  1.00000



 -------------------------------------------------------------------------------
 AUX LARGE CHARGE=0 SINGLET  PM7
 BeF2



     GEOMETRY OPTIMISED USING EIGENVECTOR FOLLOWING (EF).     
     SCF FIELD WAS ACHIEVED                                   


                              PM7 CALCULATION
                                                       MOPAC2016 (Version: 20.225L)
                                                       Thu Oct 22 08:51:07 2020
                                                       No. of days remaining = 295




          FINAL HEAT OF FORMATION =       -183.54395 KCAL/MOL =    -767.94789 KJ/MOL


          TOTAL ENERGY            =       -963.59123 EV
          ELECTRONIC ENERGY       =      -1433.65946 EV  POINT GROUP:     D*h 
          CORE-CORE REPULSION     =        470.06823 EV
          COSMO AREA              =         73.89 SQUARE ANGSTROMS
          COSMO VOLUME            =         56.70 CUBIC ANGSTROMS

          GRADIENT NORM           =          0.02877 = 0.01661 PER ATOM
          IONIZATION POTENTIAL    =         15.199024 EV
          HOMO LUMO ENERGIES (EV) =        -15.199  1.515
          NO. OF FILLED LEVELS    =          8
          MOLECULAR WEIGHT        =         47.0090

          MOLECULAR DIMENSIONS (Angstroms)

            Atom       Atom       Distance
            F     3    F     2     2.71490
           Be     1    F     2     0.00000
            F     2   Be     1     0.00000


          SCF CALCULATIONS        =          6
 
          WALL-CLOCK TIME         =          0.371 SECONDS
          COMPUTATION TIME        =          0.024 SECONDS




   ATOM   CHEMICAL          X               Y               Z
  NUMBER   SYMBOL      (ANGSTROMS)     (ANGSTROMS)     (ANGSTROMS)
 
     1      Be         -0.56166000  *   0.70056000  *   0.00000000  *
     2       F          0.79578934  *   0.70056000  *  -0.00000000  *
     3       F         -1.91910934  *   0.70056000  *  -0.00000000  *

                             CARTESIAN COORDINATES

   1   Be       -0.561660001     0.700560000     0.000000000
   2    F        0.795789341     0.700560000    -0.000000000
   3    F       -1.919109340     0.700560000    -0.000000000


           Empirical Formula: Be F2  =     3 atoms



      MOLECULAR POINT GROUP   :   D*h 


                  EIGENVALUES  
 -39.61232 -39.37838 -17.40291 -15.93086 -15.93086 -15.30160 -15.19902 -15.19902
   1.51459   2.68805   2.68805   5.91775


              NET ATOMIC CHARGES AND DIPOLE CONTRIBUTIONS

  ATOM NO.   TYPE          CHARGE      No. of ELECS.   s-Pop       p-Pop       
    1         Be           0.847847        1.1522     0.41573     0.73642
    2          F          -0.423923        7.4239     1.95091     5.47302
    3          F          -0.423923        7.4239     1.95091     5.47302
 DIPOLE           X         Y         Z       TOTAL
 POINT-CHG.    -0.000    -0.000     0.000     0.000
 HYBRID         0.000    -0.000     0.000     0.000
 SUM           -0.000    -0.000     0.000     0.000


          ATOMIC ORBITAL ELECTRON POPULATIONS

     Atom    s        px        py        pz   
    1 Be   0.41573   0.52478   0.10582   0.10582
    2  F   1.95091   1.57884   1.94709   1.94709
    3  F   1.95091   1.57884   1.94709   1.94709

 **********************
 *                    *
 * JOB ENDED NORMALLY *
 *                    *
 **********************



 TOTAL JOB TIME:             0.37 SECONDS

 == MOPAC DONE ==
